
                                 *****************
                                 * O   R   C   A *
                                 *****************

                                            #,                                       
                                            ###                                      
                                            ####                                     
                                            #####                                    
                                            ######                                   
                                           ########,                                 
                                     ,,################,,,,,                         
                               ,,#################################,,                 
                          ,,##########################################,,             
                       ,#########################################, ''#####,          
                    ,#############################################,,   '####,        
                  ,##################################################,,,,####,       
                ,###########''''           ''''###############################       
              ,#####''   ,,,,##########,,,,          '''####'''          '####       
            ,##' ,,,,###########################,,,                        '##       
           ' ,,###''''                  '''############,,,                           
         ,,##''                                '''############,,,,        ,,,,,,###''
      ,#''                                            '''#######################'''  
     '                                                          ''''####''''         
             ,#######,   #######,   ,#######,      ##                                
            ,#'     '#,  ##    ##  ,#'     '#,    #''#        ,####,   ,####,        
            ##       ##  ##   ,#'  ##            #'  '#       #'       #'  '#        
            ##       ##  #######   ##           ,######,      #####,   #    #        
            '#,     ,#'  ##    ##  '#,     ,#' ,#      #,     #,   #   #,  ,#        
             '#######'   ##     ##  '#######'  #'      '#     '####' # '####'        



                #########################################################
                #                        -***-                          #
                #          Department of theory and spectroscopy        #
                #                                                       #
                #                      Frank Neese                      #
                #                                                       #
                #     Directorship, Architecture, Infrastructure        #
                #                    SHARK, DRIVERS                     #
                #        Core code/Algorithms in most modules           #
                #                                                       #
                #        Max Planck Institute fuer Kohlenforschung      #
                #                Kaiser Wilhelm Platz 1                 #
                #                 D-45470 Muelheim/Ruhr                 #
                #                      Germany                          #
                #                                                       #
                #                  All rights reserved                  #
                #                        -***-                          #
                #########################################################


                         Program Version 6.0.1  -  RELEASE   -


 With contributions from (in alphabetic order):
[Max-Planck-Institut fuer Kohlenforschung]                               
  Daniel Aravena         : Magnetic Suceptibility                        
  Michael Atanasov       : Ab Initio Ligand Field Theory (pilot matlab implementation)
  Alexander A. Auer      : GIAO ZORA, VPT2 properties, NMR spectrum      
  Ute Becker             : All parallelization in ORCA, NUMFREQ, NUMCALC 
  Giovanni Bistoni       : ED, misc. LED, open-shell LED, HFLD           
  Martin Brehm           : Molecular dynamics                            
  Dmytro Bykov           : pre 5.0 version of the SCF Hessian            
  Marcos Casanova-Páez   : Triplet and SCS-CIS(D). UHF-(DLPNO)-IP/EA/STEOM-CCSD. UHF-CVS-IP/STEOM-CCSD   
  Vijay G. Chilkuri      : MRCI spin determinant printing, contributions to CSF-ICE 
  Pauline Colinet        : FMM embedding                                 
  Dipayan Datta          : RHF DLPNO-CCSD density                        
  Achintya Kumar Dutta   : EOM-CC, STEOM-CC                              
  Nicolas Foglia         : Exact transition moments, OPA infrastructure, MCD improvements    
  Dmitry Ganyushin       : Spin-Orbit,Spin-Spin,Magnetic field MRCI      
  Miquel Garcia-Rates    : C-PCM and meta-GGA Hessian, CCSD/C-PCM, Gaussian charge scheme 
  Tiago L. C. Gouveia    : GS-ROHF, GS-ROCIS                             
  Yang Guo               : DLPNO-NEVPT2, F12-NEVPT2, CIM, IAO-localization        
  Andreas Hansen         : Spin unrestricted coupled pair/coupled cluster methods 
  Ingolf Harden          : AUTO-CI MPn and infrastructure                
  Benjamin Helmich-Paris : MC-RPA, TRAH-(SCF,CASSCF), AVAS, COSX integrals, SCF dyn. polar. 
  Lee Huntington         : MR-EOM, pCC                                   
  Robert Izsak           : Overlap fitted RIJCOSX, COSX-SCS-MP3, EOM     
  Riya Kayal             : Wick's Theorem for AUTO-CI, AUTO-CI UHF-CCSDT 
  Emily Kempfer          : AUTO-CI, RHF CISDT and CCSDT                  
  Christian Kollmar      : KDIIS, OOCD, Brueckner-CCSD(T), CCSD density, CASPT2, CASPT2-K, improved NEVPT2 
  Axel Koslowski         : Symmetry handling                             
  Simone Kossmann        : meta-GGA functionals, TD-DFT gradient, OOMP2, (MP2 Hessian; deprecated post 5.0) 
  Lucas Lang             : DCDCAS                                        
  Marvin Lechner         : AUTO-CI (C++ implementation), FIC-MRCC        
  Spencer Leger          : CASSCF response                               
  Dagmar Lenk            : GEPOL surface, SMD, ORCA-2-JSON               
  Dimitrios Liakos       : Extrapolation schemes; Compound Job, initial MDCI parallelization 
  Dimitrios Manganas     : Further ROCIS development; embedding schemes. LFT, Crystal Embedding 
  Dimitrios Pantazis     : SARC Basis sets                               
  Anastasios Papadopoulos: AUTO-CI, single reference methods and gradients 
  Taras Petrenko         : pre 6.0 DFT Hessian and TD-DFT gradient, (ASA, deprecated), ECA, 1-Electron XAS/XES, NRVS 
  Peter Pinski           : DLPNO-MP2, DLPNO-MP2 Gradient                 
  Christoph Reimann      : Effective Core Potentials                     
  Marius Retegan         : Local ZFS, SOC                                
  Christoph Riplinger    : Optimizer, TS searches, QM/MM, DLPNO-CCSD(T), (RO)-DLPNO pert. Triples 
  Michael Roemelt        : Original ROCIS implementation                 
  Masaaki Saitow         : Open-shell DLPNO-CCSD energy and density      
  Barbara Sandhoefer     : DKH picture change effects                    
  Kantharuban Sivalingam : CASSCF convergence/infrastructure, NEVPT2 and variants, FIC-MRCI 
  Bernardo de Souza      : ESD, SOC TD-DFT                               
  Georgi L. Stoychev     : AutoAux, RI-MP2 NMR, DLPNO-MP2 response, X2C  
  Van Anh Tran           : RI-MP2 g-tensors                              
  Willem Van den Heuvel  : Paramagnetic NMR                              
  Zikuan Wang            : NOTCH, Electric field optimization            
  Frank Wennmohs         : Technical directorship and infrastructure     
  Hang Xu                : AUTO-CI-Response properties                   
                                                                         
[FACCTs GmbH]                                                            
  Markus Bursch, Miquel Garcia-Rates, Christoph Riplinger, Bernardo de Souza, Georgi L. Stoychev 
                                                                 
  APM, Basis sets (HGBS, AHGBS, def-TZVP (Ac-Lr), def2-XVPD (La-Lu)), CI-OPT, improved COSX, DLPNO-Multilevel,           
  DOCKER, DRACO, updates on ESD, GOAT, IRC, LR-CPCM, MBIS, meta-GGA TD-DFT gradient, ML-optimized integration grids, 
  MM, NACMEs, nearIR, NEB, NEB-TS, NL-DFT gradient (VV10), 2- and 3-layer-ONIOM, interface openCOSMO-RS, QMMM,   
  Crystal-QMMM, SF, symmetry and pop. for TD-DFT, r2SCAN hybrids, SOLVATOR                                   
                                                                         
[Other institutions]                                                     
  V. Asgeirsson          : NEB                                           
  Christoph Bannwarth    : sTDA-DFT, sTD-DFT, PBEh-3c, B97-3c, D3        
  Sebastian Ehlert       : rSCAN, r2SCAN, r2SCAN-3c, D4, dhf basis sets  
  Marvin Friede          : D4 for Fr, Ra, Ac-Lr                          
  Lars Goerigk           : TD-DFT with DH, B97 family of functionals     
  Stefan Grimme          : VdW corrections, initial TS optimization, DFT functionals, gCP, sTDA/sTD-DF 
  Waldemar Hujo          : DFT-NL                                        
  H. Jonsson             : NEB                                           
  Holger Kruse           : gCP                                           
  Marcel Mueller         : wB97X-3c, vDZP basis set                      
  Hagen Neugebauer       : wr2SCAN                                       
  Tobias Risthaus        : range-separated hybrid DFT                    
  Lukas Wittmann         : regularized MP2, r2SCAN double-hybrids, wr2SCAN        
                                                                         
We gratefully acknowledge several colleagues who have allowed us to      
interface, adapt or use parts of their codes:                            
  Ed Valeev, F. Pavosevic, A. Kumar             : LibInt (2-el integral package), F12 methods 
  Garnet Chan, S. Sharma, J. Yang, R. Olivares  : DMRG                   
  Ulf Ekstrom                                   : XCFun DFT Library      
  Mihaly Kallay                                 : mrcc  (arbitrary order and MRCC methods)
  Frank Weinhold                                : gennbo (NPA and NBO analysis)           
  Simon Mueller                                 : openCOSMO-RS                            
  Christopher J. Cramer and Donald G. Truhlar   : smd solvation model                     
  S Lehtola, MJT Oliveira, MAL Marques          : LibXC Library                           
  Liviu Ungur et al                             : ANISO software                          


 Your calculation uses the libint2 library for the computation of 2-el integrals
 For citations please refer to: http://libint.valeyev.net

 Your ORCA version has been built with support for libXC version: 6.2.2
 For citations please refer to: https://libxc.gitlab.io

 This ORCA versions uses:
   CBLAS   interface :  Fast vector & matrix operations
   LAPACKE interface :  Fast linear algebra routines
   SCALAPACK package :  Parallel linear algebra routines
   Shared memory     :  Shared parallel matrices
   BLAS/LAPACK       :  OpenBLAS 0.3.27  USE64BITINT DYNAMIC_ARCH NO_AFFINITY SkylakeX SINGLE_THREADED
        Core in use  :  SkylakeX
   Copyright (c) 2011-2014, The OpenBLAS Project


NOTE: MaxCore=8000 MB was set to SCF,MP2,MDCI,CIPSI,MRCI and CIS
      => If you want to overwrite this, your respective input block should be placed after the MaxCore statement
Your calculation utilizes the atom-pairwise dispersion correction
with the Becke-Johnson damping scheme (D3BJ)


Your calculation utilizes the SMD solvation module
Please cite in your paper:
A.V. Marenich, C.J. Cramer, D.G. Truhlar J. Phys. Chem. B, 113, (2009), 6378 

Warning: RI is on but no J-basis has been assigned. Assigning Def2/J (nothing to worry about!)
================================================================================

----- Orbital basis set information -----
Your calculation utilizes the basis: def2-TZVP
   F. Weigend and R. Ahlrichs, Phys. Chem. Chem. Phys. 7, 3297 (2005).

----- AuxJ basis set information -----
Your calculation utilizes the auxiliary basis: def2/J
   F. Weigend, Phys. Chem. Chem. Phys. 8, 1057 (2006).

================================================================================
                                        WARNINGS
                       Please study these warnings very carefully!
================================================================================


WARNING: your system is open-shell and RHF/RKS was chosen
  ===> : WILL SWITCH to UHF/UKS


================================================================================
                                       INPUT FILE
================================================================================
NAME = rf_mecn_freq_B3L_C4_D_B.inp
|  1> !B3LYP def2-TZVP freq d3 TightSCF SlowConv defgrid2
|  2>  
|  3> %pal
|  4> nprocs 20
|  5> end
|  6>  
|  7> %scf
|  8> MaxIter 1500
|  9> end
| 10>  
| 11> %maxcore 8000
| 12>  
| 13> !CPCM
| 14> %cpcm smd true
| 15> SMDsolvent "ACETONITRILE"
| 16> end
| 17>  
| 18> * xyz -1 2
| 19> 6        4.302457000     -0.561982000     -0.892431000
| 20> 8        4.148918000     -1.473425000     -1.717311000
| 21> 8        5.162957000      0.326591000     -0.793381000
| 22> 6        3.199561000     -0.501741000      0.243662000
| 23> 6        2.134245000      0.600182000      0.004067000
| 24> 6        0.935690000      0.512792000      0.896439000
| 25> 6       -0.439004000      1.029756000      0.601086000
| 26> 6       -1.430246000     -0.088742000      0.123807000
| 27> 6       -2.941761000      0.304207000      0.203031000
| 28> 6       -3.885018000     -0.594638000     -0.658284000
| 29> 9        2.516982000     -1.683303000      0.350683000
| 30> 9        3.770931000     -0.274030000      1.465737000
| 31> 9        2.728302000      1.827139000      0.140750000
| 32> 9        1.717496000      0.513132000     -1.291981000
| 33> 9        1.099448000      0.014297000      2.110374000
| 34> 9       -0.961048000      1.583634000      1.729009000
| 35> 9       -0.377831000      1.983027000     -0.356532000
| 36> 9       -1.241452000     -1.179295000      0.898350000
| 37> 9       -1.115149000     -0.411673000     -1.146487000
| 38> 9       -3.104722000      1.578747000     -0.207131000
| 39> 9       -3.346078000      0.207529000      1.483965000
| 40> 9       -3.657716000     -1.886389000     -0.406774000
| 41> 9       -5.152602000     -0.313636000     -0.347551000
| 42> 9       -3.706984000     -0.365064000     -1.958715000
| 43> *
| 44> 
| 45>                          ****END OF INPUT****
================================================================================

                       ****************************
                       * Single Point Calculation *
                       ****************************

---------------------------------
CARTESIAN COORDINATES (ANGSTROEM)
---------------------------------
  C      4.302457   -0.561982   -0.892431
  O      4.148918   -1.473425   -1.717311
  O      5.162957    0.326591   -0.793381
  C      3.199561   -0.501741    0.243662
  C      2.134245    0.600182    0.004067
  C      0.935690    0.512792    0.896439
  C     -0.439004    1.029756    0.601086
  C     -1.430246   -0.088742    0.123807
  C     -2.941761    0.304207    0.203031
  C     -3.885018   -0.594638   -0.658284
  F      2.516982   -1.683303    0.350683
  F      3.770931   -0.274030    1.465737
  F      2.728302    1.827139    0.140750
  F      1.717496    0.513132   -1.291981
  F      1.099448    0.014297    2.110374
  F     -0.961048    1.583634    1.729009
  F     -0.377831    1.983027   -0.356532
  F     -1.241452   -1.179295    0.898350
  F     -1.115149   -0.411673   -1.146487
  F     -3.104722    1.578747   -0.207131
  F     -3.346078    0.207529    1.483965
  F     -3.657716   -1.886389   -0.406774
  F     -5.152602   -0.313636   -0.347551
  F     -3.706984   -0.365064   -1.958715

----------------------------
CARTESIAN COORDINATES (A.U.)
----------------------------
  NO LB      ZA    FRAG     MASS         X           Y           Z
   0 C     6.0000    0    12.011    8.130465   -1.061992   -1.686450
   1 O     8.0000    0    15.999    7.840319   -2.784370   -3.245247
   2 O     8.0000    0    15.999    9.756575    0.617168   -1.499273
   3 C     6.0000    0    12.011    6.046294   -0.948153    0.460454
   4 C     6.0000    0    12.011    4.033139    1.134180    0.007686
   5 C     6.0000    0    12.011    1.768198    0.969036    1.694024
   6 C     6.0000    0    12.011   -0.829597    1.945957    1.135888
   7 C     6.0000    0    12.011   -2.702773   -0.167698    0.233961
   8 C     6.0000    0    12.011   -5.559123    0.574868    0.383673
   9 C     6.0000    0    12.011   -7.341620   -1.123703   -1.243976
  10 F     9.0000    0    18.998    4.756407   -3.180982    0.662695
  11 F     9.0000    0    18.998    7.126027   -0.517842    2.769842
  12 F     9.0000    0    18.998    5.155744    3.452792    0.265979
  13 F     9.0000    0    18.998    3.245597    0.969679   -2.441490
  14 F     9.0000    0    18.998    2.077656    0.027017    3.988029
  15 F     9.0000    0    18.998   -1.816118    2.992635    3.267353
  16 F     9.0000    0    18.998   -0.713997    3.747378   -0.673748
  17 F     9.0000    0    18.998   -2.346004   -2.228545    1.697635
  18 F     9.0000    0    18.998   -2.107326   -0.777949   -2.166546
  19 F     9.0000    0    18.998   -5.867074    2.983399   -0.391421
  20 F     9.0000    0    18.998   -6.323171    0.392173    2.804287
  21 F     9.0000    0    18.998   -6.912082   -3.564759   -0.768691
  22 F     9.0000    0    18.998   -9.737007   -0.592686   -0.656776
  23 F     9.0000    0    18.998   -7.005185   -0.689871   -3.701435

--------------------------------
INTERNAL COORDINATES (ANGSTROEM)
--------------------------------
 C      0   0   0     0.000000000000     0.00000000     0.00000000
 O      1   0   0     1.238842032371     0.00000000     0.00000000
 O      1   2   0     1.240900128467   131.75311015     0.00000000
 C      1   2   3     1.584523862094   114.77862718   179.49211295
 C      4   1   2     1.551302111715   113.21959585   258.28546483
 C      5   4   1     1.496829611716   114.60315767   168.37715619
 C      6   5   4     1.498088370404   126.66175617   205.71017330
 C      7   6   5     1.568882953700   113.18688192   100.23926937
 C      8   7   6     1.563765632696   114.59136239   163.12222058
 C      9   8   7     1.561896165338   114.27969624   162.04135409
 F      4   1   2     1.368742614784   111.73731596    18.43929863
 F      4   1   2     1.368131310235   110.86031170   136.92476169
 F      5   4   1     1.370039941603   108.84212622   291.83974003
 F      5   4   1     1.364183950135   108.13136467    47.17668260
 F      6   5   4     1.322479539280   118.04067933    30.66466680
 F      7   6   5     1.360706092714   109.21397313   219.89958581
 F      7   6   5     1.352590096553   109.95525354   338.85088059
 F      8   7   6     1.350875967324   108.22890458    42.56590383
 F      8   7   6     1.348042060399   108.04554438   285.48459993
 F      9   8   7     1.348792558315   109.80542971    40.98267022
 F      9   8   7     1.346703673615   108.68375013   282.18430386
 F     10   9   8     1.335493963036   110.48685693    50.60468883
 F     10   9   8     1.335022965476   108.90055916   169.98023133
 F     10   9   8     1.332486815092   110.99881823   289.39806668

---------------------------
INTERNAL COORDINATES (A.U.)
---------------------------
 C      0   0   0     0.000000000000     0.00000000     0.00000000
 O      1   0   0     2.341072164372     0.00000000     0.00000000
 O      1   2   0     2.344961402350   131.75311015     0.00000000
 C      1   2   3     2.994316152021   114.77862718   179.49211295
 C      4   1   2     2.931536142114   113.21959585   258.28546483
 C      5   4   1     2.828598035286   114.60315767   168.37715619
 C      6   5   4     2.830976744477   126.66175617   205.71017330
 C      7   6   5     2.964759118670   113.18688192   100.23926937
 C      8   7   6     2.955088783434   114.59136239   163.12222058
 C      9   8   7     2.951556002111   114.27969624   162.04135409
 F      4   1   2     2.586548689769   111.73731596    18.43929863
 F      4   1   2     2.585393491587   110.86031170   136.92476169
 F      5   4   1     2.589000282163   108.84212622   291.83974003
 F      5   4   1     2.577934062045   108.13136467    47.17668260
 F      6   5   4     2.499124146953   118.04067933    30.66466680
 F      7   6   5     2.571361863988   109.21397313   219.89958581
 F      7   6   5     2.556024853940   109.95525354   338.85088059
 F      8   7   6     2.552785619139   108.22890458    42.56590383
 F      8   7   6     2.547430311162   108.04554438   285.48459993
 F      9   8   7     2.548848546686   109.80542971    40.98267022
 F      9   8   7     2.544901126679   108.68375013   282.18430386
 F     10   9   8     2.523717843643   110.48685693    50.60468883
 F     10   9   8     2.522827787246   108.90055916   169.98023133
 F     10   9   8     2.518035157584   110.99881823   289.39806668

---------------------
BASIS SET INFORMATION
---------------------
There are 3 groups of distinct atoms

 Group   1 Type C   : 11s6p2d1f contracted to 5s3p2d1f pattern {62111/411/11/1}
 Group   2 Type O   : 11s6p2d1f contracted to 5s3p2d1f pattern {62111/411/11/1}
 Group   3 Type F   : 11s6p2d1f contracted to 5s3p2d1f pattern {62111/411/11/1}

Atom   0C    basis set group =>   1
Atom   1O    basis set group =>   2
Atom   2O    basis set group =>   2
Atom   3C    basis set group =>   1
Atom   4C    basis set group =>   1
Atom   5C    basis set group =>   1
Atom   6C    basis set group =>   1
Atom   7C    basis set group =>   1
Atom   8C    basis set group =>   1
Atom   9C    basis set group =>   1
Atom  10F    basis set group =>   3
Atom  11F    basis set group =>   3
Atom  12F    basis set group =>   3
Atom  13F    basis set group =>   3
Atom  14F    basis set group =>   3
Atom  15F    basis set group =>   3
Atom  16F    basis set group =>   3
Atom  17F    basis set group =>   3
Atom  18F    basis set group =>   3
Atom  19F    basis set group =>   3
Atom  20F    basis set group =>   3
Atom  21F    basis set group =>   3
Atom  22F    basis set group =>   3
Atom  23F    basis set group =>   3
---------------------------------
AUXILIARY/J BASIS SET INFORMATION
---------------------------------
There are 3 groups of distinct atoms

 Group   1 Type C   : 12s5p4d2f1g contracted to 6s4p3d1f1g pattern {711111/2111/211/2/1}
 Group   2 Type O   : 12s5p4d2f1g contracted to 6s4p3d1f1g pattern {711111/2111/211/2/1}
 Group   3 Type F   : 12s5p4d2f1g contracted to 6s4p3d1f1g pattern {711111/2111/211/2/1}

Atom   0C    basis set group =>   1
Atom   1O    basis set group =>   2
Atom   2O    basis set group =>   2
Atom   3C    basis set group =>   1
Atom   4C    basis set group =>   1
Atom   5C    basis set group =>   1
Atom   6C    basis set group =>   1
Atom   7C    basis set group =>   1
Atom   8C    basis set group =>   1
Atom   9C    basis set group =>   1
Atom  10F    basis set group =>   3
Atom  11F    basis set group =>   3
Atom  12F    basis set group =>   3
Atom  13F    basis set group =>   3
Atom  14F    basis set group =>   3
Atom  15F    basis set group =>   3
Atom  16F    basis set group =>   3
Atom  17F    basis set group =>   3
Atom  18F    basis set group =>   3
Atom  19F    basis set group =>   3
Atom  20F    basis set group =>   3
Atom  21F    basis set group =>   3
Atom  22F    basis set group =>   3
Atom  23F    basis set group =>   3


           ************************************************************
           *        Program running with 20 parallel MPI-processes    *
           *              working on a common directory               *
           ************************************************************
------------------------------------------------------------------------------
                             ORCA STARTUP CALCULATIONS
                           -- RI-GTO INTEGRALS CHOSEN --
------------------------------------------------------------------------------
------------------------------------------------------------------------------
                   ___                                                        
                  /   \      - P O W E R E D   B Y -                         
                 /     \                                                     
                 |  |  |   _    _      __       _____    __    __             
                 |  |  |  | |  | |    /  \     |  _  \  |  |  /  |          
                  \  \/   | |  | |   /    \    | | | |  |  | /  /          
                 / \  \   | |__| |  /  /\  \   | |_| |  |  |/  /          
                |  |  |   |  __  | /  /__\  \  |    /   |      \           
                |  |  |   | |  | | |   __   |  |    \   |  |\   \          
                \     /   | |  | | |  |  |  |  | |\  \  |  | \   \       
                 \___/    |_|  |_| |__|  |__|  |_| \__\ |__|  \__/        
                                                                              
                      - O R C A' S   B I G   F R I E N D -                    
                                      &                                       
                       - I N T E G R A L  F E E D E R -                       
                                                                              
 v1 FN, 2020, v2 2021, v3 2022-2024                                           
------------------------------------------------------------------------------


----------------------
SHARK INTEGRAL PACKAGE
----------------------

Number of atoms                             ...     24
Number of basis functions                   ...    744
Number of shells                            ...    264
Maximum angular momentum                    ...      3
Integral batch strategy                     ... SHARK/LIBINT Hybrid
RI-J (if used) integral strategy            ... SPLIT-RIJ (Revised 2003 algorithm where possible)
Printlevel                                  ...      1
Contraction scheme used                     ... SEGMENTED contraction
Prescreening option                         ... SCHWARTZ
   Thresh                                   ... 2.500e-11
   Tcut                                     ... 2.500e-12
   Tpresel                                  ... 2.500e-12 
Coulomb Range Separation                    ... NOT USED
Exchange Range Separation                   ... NOT USED
Multipole approximations                    ... NOT USED
Finite Nucleus Model                        ... NOT USED
CABS basis                                  ... NOT available
Auxiliary Coulomb fitting basis             ... AVAILABLE
   # of basis functions in Aux-J            ...   1176
   # of shells in Aux-J                     ...    360
   Maximum angular momentum in Aux-J        ...      4
Auxiliary J/K fitting basis                 ... NOT available
Auxiliary Correlation fitting basis         ... NOT available
Auxiliary 'external' fitting basis          ... NOT available

Checking pre-screening integrals            ... done (  0.0 sec) Dimension = 264
Check shell pair data                       ... done (  0.0 sec)
Shell pair information
Shell pair cut-off parameter TPreSel        ...   2.5e-12
Total number of shell pairs                 ...     34980
Shell pairs after pre-screening             ...     22017
Total number of primitive shell pairs       ...    115968
Primitive shell pairs kept                  ...     46775
          la=0 lb=0:   4094 shell pairs
          la=1 lb=0:   5991 shell pairs
          la=1 lb=1:   2094 shell pairs
          la=2 lb=0:   3277 shell pairs
          la=2 lb=1:   2420 shell pairs
          la=2 lb=2:    684 shell pairs
          la=3 lb=0:   1501 shell pairs
          la=3 lb=1:   1176 shell pairs
          la=3 lb=2:    626 shell pairs
          la=3 lb=3:    154 shell pairs

Calculating one electron integrals          ... done (  0.0 sec)
Calculating RI/J V-Matrix + Cholesky decomp.... done (  0.1 sec)
Calculating Nuclear repulsion               ... done (  0.0 sec) ENN=   2633.673322900169 Eh

Diagonalization of the overlap matrix:
Smallest eigenvalue                        ... 7.122e-05
Time for diagonalization                   ...    0.116 sec
Threshold for overlap eigenvalues          ... 1.000e-07
Number of eigenvalues below threshold      ... 0
Time for construction of square roots      ...    0.051 sec
Total time needed                          ...    0.173 sec

-------------------
DFT GRID GENERATION
-------------------

General Integration Accuracy     IntAcc      ... 4.388
Radial Grid Type                 RadialGrid  ... OptM3 with GC (2021)
Angular Grid (max. ang.)         AngularGrid ... 4 (Lebedev-302)
Angular grid pruning method      GridPruning ... 4 (adaptive)
Weight generation scheme         WeightScheme... mBecke (2022)
Basis function cutoff            BFCut       ... 1.0000e-11
Integration weight cutoff        WCut        ... 1.0000e-14
Partially contracted basis set               ... off
Rotationally invariant grid construction     ... off
Angular grids for H and He will be reduced by one unit

Total number of grid points                  ...   145454
Total number of batches                      ...     2284
Average number of points per batch           ...       63
Average number of grid points per atom       ...     6061

--------------------
COSX GRID GENERATION
--------------------

GRIDX 1
-------
General Integration Accuracy     IntAcc      ... 3.816
Radial Grid Type                 RadialGrid  ... OptM3 with GC (2021)
Angular Grid (max. ang.)         AngularGrid ... 1 (Lebedev-50)
Angular grid pruning method      GridPruning ... 4 (adaptive)
Weight generation scheme         WeightScheme... mBecke (2022)
Basis function cutoff            BFCut       ... 1.0000e-11
Integration weight cutoff        WCut        ... 1.0000e-14
Partially contracted basis set               ... on
Rotationally invariant grid construction     ... off
Angular grids for H and He will be reduced by one unit

Total number of grid points                  ...    18247
Total number of batches                      ...      153
Average number of points per batch           ...      119
Average number of grid points per atom       ...      760
UseSFitting                                  ... on

GRIDX 2
-------
General Integration Accuracy     IntAcc      ... 4.020
Radial Grid Type                 RadialGrid  ... OptM3 with GC (2021)
Angular Grid (max. ang.)         AngularGrid ... 2 (Lebedev-110)
Angular grid pruning method      GridPruning ... 4 (adaptive)
Weight generation scheme         WeightScheme... mBecke (2022)
Basis function cutoff            BFCut       ... 1.0000e-11
Integration weight cutoff        WCut        ... 1.0000e-14
Partially contracted basis set               ... on
Rotationally invariant grid construction     ... off
Angular grids for H and He will be reduced by one unit

Total number of grid points                  ...    43282
Total number of batches                      ...      349
Average number of points per batch           ...      124
Average number of grid points per atom       ...     1803
UseSFitting                                  ... on

GRIDX 3
-------
General Integration Accuracy     IntAcc      ... 4.338
Radial Grid Type                 RadialGrid  ... OptM3 with GC (2021)
Angular Grid (max. ang.)         AngularGrid ... 3 (Lebedev-194)
Angular grid pruning method      GridPruning ... 4 (adaptive)
Weight generation scheme         WeightScheme... mBecke (2022)
Basis function cutoff            BFCut       ... 1.0000e-11
Integration weight cutoff        WCut        ... 1.0000e-14
Partially contracted basis set               ... on
Rotationally invariant grid construction     ... off
Angular grids for H and He will be reduced by one unit

Total number of grid points                  ...    96003
Total number of batches                      ...      763
Average number of points per batch           ...      125
Average number of grid points per atom       ...     4000
UseSFitting                                  ... on
Initializing property integral containers    ... done (  0.0 sec)

SHARK setup successfully completed in   3.5 seconds

Maximum memory used throughout the entire STARTUP-calculation: 57.1 MB


           ************************************************************
           *        Program running with 20 parallel MPI-processes    *
           *              working on a common directory               *
           ************************************************************
-------------------------------------------------------------------------------
                                 ORCA GUESS
                   Start orbitals & Density for SCF / CASSCF
-------------------------------------------------------------------------------

------------
SCF SETTINGS
------------
Hamiltonian:
 Density Functional     Method          .... DFT(GTOs)
 Exchange Functional    Exchange        .... B88
   X-Alpha parameter    XAlpha          ....  0.666667
   Becke's b parameter  XBeta           ....  0.004200
 Correlation Functional Correlation     .... LYP
 LDA part of GGA corr.  LDAOpt          .... VWN-5
 Gradients option       PostSCFGGA      .... off
 Hybrid DFT is turned on
   Fraction HF Exchange ScalHFX         ....  0.200000
   Scaling of DF-GGA-X  ScalDFX         ....  0.720000
   Scaling of DF-GGA-C  ScalDFC         ....  0.810000
   Scaling of DF-LDA-C  ScalLDAC        ....  1.000000
   Perturbative correction              ....  0.000000
   NL short-range parameter             ....  4.800000
 RI-approximation to the Coulomb term is turned on
   Number of AuxJ basis functions       .... 1176
   RIJ-COSX (HFX calculated with COS-X)).... on


General Settings:
 Integral files         IntName         .... rf_mecn_freq_B3L_C4_D_B
 Hartree-Fock type      HFTyp           .... UHF
 Total Charge           Charge          ....   -1
 Multiplicity           Mult            ....    2
 Number of Electrons    NEL             ....  191
 Basis Dimension        Dim             ....  744
 Nuclear Repulsion      ENuc            ....   2633.6733229002 Eh

Convergence Acceleration:
 AO-DIIS                CNVDIIS         .... on
   Start iteration      DIISMaxIt       ....     0
   Startup error        DIISStart       ....  0.200000
   # of expansion vecs  DIISMaxEq       ....     5
   Bias factor          DIISBfac        ....   1.050
   Max. coefficient     DIISMaxC        ....  10.000
 MO-DIIS                CNVKDIIS        .... off
 Trust-Rad. Augm. Hess. CNVTRAH         .... auto
   Auto Start mean grad. ratio tolernc. ....  1.125000
   Auto Start start iteration           ....    50
   Auto Start num. interpolation iter.  ....    10
   Max. Number of Micro iterations      ....    24
   Max. Number of Macro iterations      .... Maxiter - #DIIS iter
   Number of Davidson start vectors     ....     2
   Converg. threshold    (grad. norm)   ....   1.000e-05
   Grad. Scal. Fac. for Micro threshold ....   0.100
   Minimum threshold for Micro iter.    ....   1.000e-02
   NR start threshold (gradient norm)   ....   1.000e-04
   Initial trust radius                 ....   0.400
   Minimum AH scaling param. (alpha)    ....   1.000
   Maximum AH scaling param. (alpha)    .... 1000.000
   Quad. conv. algorithm                .... NR
   White noise on init. David. guess    .... on
   Maximum white noise                  ....   0.010
   Pseudo random numbers                .... off
   Inactive MOs                         .... canonical
   Orbital update algorithm             .... Taylor
   Preconditioner                       .... Diag
   Full preconditioner red. dimension   ....   250
 SOSCF                  CNVSOSCF        .... on
   Start iteration      SOSCFMaxIt      ....   150
   Startup grad/error   SOSCFStart      ....  0.001000
   Hessian update       SOSCFHessUp     .... L-BFGS
 Level Shifting         CNVShift        .... on
   Level shift para.    LevelShift      ....    0.2500
   Turn off err/grad.   ShiftErr        ....    0.0000
 Zerner damping         CNVZerner       .... off
 Static damping         CNVDamp         .... on
   Fraction old density DampFac         ....    0.8500
   Max. Damping (<1)    DampMax         ....    0.9800
   Min. Damping (>=0)   DampMin         ....    0.0000
   Turn off err/grad.   DampErr         ....    0.0300

SCF Procedure:
 Maximum # iterations   MaxIter         ....  1500
 SCF integral mode      SCFMode         .... Direct
   Integral package                     .... SHARK and LIBINT hybrid scheme
 Reset frequency        DirectResetFreq ....    20
 Integral Threshold     Thresh          ....  2.500e-11 Eh
 Primitive CutOff       TCut            ....  2.500e-12 Eh

Convergence Tolerance:
 Convergence Check Mode ConvCheckMode   .... Total+1el-Energy
 Convergence forced     ConvForced      .... 0
 Energy Change          TolE            ....  1.000e-08 Eh
 1-El. energy change                    ....  1.000e-05 Eh
 Orbital Gradient       TolG            ....  1.000e-05
 Orbital Rotation angle TolX            ....  1.000e-05
 DIIS Error             TolErr          ....  5.000e-07

------------------------------
INITIAL GUESS: MODEL POTENTIAL
------------------------------
Loading Hartree-Fock densities                     ... done
Calculating cut-offs                               ... done
Initializing the effective Hamiltonian             ... done
Setting up the integral package (SHARK)            ... done
Starting the Coulomb interaction                   ... done (   0.2 sec)
Making the grid                                    ... done (   0.4 sec)
Mapping shells                                     ... done
Starting the XC term evaluation                    ... done (   0.1 sec)
  promolecular density results
     # of electrons  =    190.001434898
     EX              =   -198.268569353
     EC              =     -7.144794183
     EX+EC           =   -205.413363536
Transforming the Hamiltonian                       ... done (   0.1 sec)
Diagonalizing the Hamiltonian                      ... done (   0.1 sec)
Back transforming the eigenvectors                 ... done (   0.0 sec)
Now organizing SCF variables                       ... done
                      ------------------
                      INITIAL GUESS DONE (   1.1 sec)
                      ------------------
             **** ENERGY FILE WAS UPDATED (rf_mecn_freq_B3L_C4_D_B.en.tmp) ****
Finished Guess after   1.9 sec
Maximum memory used throughout the entire GUESS-calculation: 46.0 MB


           ************************************************************
           *        Program running with 20 parallel MPI-processes    *
           *              working on a common directory               *
           ************************************************************

-------------------------------------------------------------------------------------------
                                      ORCA LEAN-SCF
                              memory conserving SCF solver
-------------------------------------------------------------------------------------------

--------------------
CPCM SOLVATION MODEL
--------------------
CPCM parameters:
  Epsilon                                         ...      35.6880
  Refrac                                          ...       1.3442
  Rsolv                                           ...       1.3000
  Surface type                                    ... GAUSSIAN VDW
  Discretization scheme                           ... Constant charge density
    Threshold for H atoms                         ...       5.0000 (charges/Ang^2)
    Threshold for non-H atoms                     ...       5.0000 (charges/Ang^2)
  Epsilon function type                           ...         CPCM
Solvent:                                          ... ACETONITRILE
SMD-CDS solvent descriptors:
  Soln                                            ...       1.3442
  Soln25                                          ...       1.3416
  Sola                                            ...       0.0700
  Solb                                            ...       0.3200
  Solg                                            ...      41.2500
  Solc                                            ...       0.0000
  Solh                                            ...       0.0000
Radii:
  Scheme                                          ... Element-dependent radii
  Radius for C  used is    3.4960 Bohr (=   1.8500 Ang.)
  Radius for O  used is    4.0969 Bohr (=   2.1680 Ang.)
  Radius for F  used is    3.2692 Bohr (=   1.7300 Ang.)
Calculating surface                               ...        done! (  0.0s)
Cavity surface points                             ...         2158
Cavity Volume                                     ...    2118.1080
Cavity Surface-area                               ...    1112.6016
Calculating surface distance matrix               ...        done! (  0.1s)
Performing Cholesky decomposition & store         ...        done! (  0.1s)
Overall time for CPCM initialization              ...                 0.1s

----------------------------------------D-I-I-S--------------------------------------------
Iteration    Energy (Eh)           Delta-E    RMSDP     MaxDP     DIISErr   Damp  Time(sec)
-------------------------------------------------------------------------------------------
               ***  Starting incremental Fock matrix formation  ***
    1    -1852.7070110193299115     0.00e+00  2.71e-04  2.98e-02  1.66e-01  0.850   7.4
Warning: op=0 Small HOMO/LUMO gap (   0.075) - skipping pre-diagonalization
         Will do a full diagonalization
    2    -1852.8725477971247528    -1.66e-01  3.63e-04  6.21e-02  1.15e-01  0.850   5.0
                               ***Turning on AO-DIIS***
    3    -1852.9630601971703072    -9.05e-02  1.96e-04  3.51e-02  7.00e-02  0.850   4.1
    4    -1853.0176676112796486    -5.46e-02  1.08e-04  1.72e-02  5.25e-02  0.850   4.0
    5    -1853.0566230950462341    -3.90e-02  6.42e-05  7.61e-03  4.33e-02  0.850   4.0
    6    -1853.0874839607886315    -3.09e-02  4.46e-05  3.56e-03  3.72e-02  0.850   4.0
    7    -1853.1131122292763393    -2.56e-02  3.66e-05  2.48e-03  3.19e-02  0.850   3.8
    8    -1853.1347232300076939    -2.16e-02  3.23e-05  2.29e-03  2.68e-02  0.850   3.7
    9    -1853.1527435927901024    -1.80e-02  1.87e-04  1.31e-02  2.23e-02  0.000   3.8
   10    -1853.2472033695339633    -9.45e-02  1.61e-05  2.33e-03  2.83e-03  0.000   4.3
                              *** Initializing SOSCF ***
---------------------------------------S-O-S-C-F--------------------------------------
Iteration    Energy (Eh)           Delta-E    RMSDP     MaxDP     MaxGrad    Time(sec)
--------------------------------------------------------------------------------------
   11    -1853.2473372150234354    -1.34e-04  8.70e-06  1.57e-03  4.31e-04     4.1
               *** Restarting incremental Fock matrix formation ***
   12    -1853.2473168867718414     2.03e-05  7.30e-06  7.30e-04  4.78e-04     6.9
   13    -1853.2473219776338738    -5.09e-06  5.63e-06  6.45e-04  1.84e-04     5.0
   14    -1853.2473229589113544    -9.81e-07  3.04e-06  2.48e-04  1.96e-04     4.8
   15    -1853.2473239564851610    -9.98e-07  1.81e-06  2.16e-04  9.47e-05     4.5
   16    -1853.2473239542914598     2.19e-09  1.09e-06  9.65e-05  6.20e-05     4.4
                 **** Energy Check signals convergence ****

               *****************************************************
               *                     SUCCESS                       *
               *           SCF CONVERGED AFTER  16 CYCLES          *
               *****************************************************

Recomputing exchange energy using gridx3       ... done (    8.961 sec)
Old exchange energy                            :    -39.800673599 Eh
New exchange energy                            :    -39.800635117 Eh
Exchange energy change after final integration :      0.000038482 Eh
Total energy after final integration           :  -1853.247285472 Eh

SMD CDS free energy correction energy :                 3.23282     Kcal/mol
Total Energy after SMD CDS correction =             -1853.242133645 Eh
             **** ENERGY FILE WAS UPDATED (rf_mecn_freq_B3L_C4_D_B.en.tmp) ****

----------------
TOTAL SCF ENERGY
----------------

Total Energy       :      -1853.24213364504749 Eh          -50429.28223 eV

Components:
Nuclear Repulsion  :       2633.67332290016930 Eh           71665.89454 eV
Electronic Energy  :      -4486.83600665739687 Eh         -122093.01483 eV
One Electron Energy:      -7841.77070869779527 Eh         -213385.42929 eV
Two Electron Energy:       3354.93470204039795 Eh           91292.41446 eV
CPCM Dielectric    :         -0.08464019706277 Eh              -2.30318 eV
SMD CDS (Gcds)     :          0.00515182716749 Eh               0.14019 eV

Virial components:
Potential Energy   :      -3700.21978612969315 Eh         -100688.09926 eV
Kinetic Energy     :       1846.97765248464566 Eh           50258.81703 eV
Virial Ratio       :          2.00339174713455

DFT components:
N(Alpha)           :       95.999997484871 electrons
N(Beta)            :       94.999998671995 electrons
N(Total)           :      190.999996156866 electrons
E(X)               :     -158.620542753517 Eh       
E(C)               :       -8.380816040628 Eh       
E(XC)              :     -167.001358794144 Eh       

CPCM Solvation Model Properties:
Surface-charge          :          0.98955198966651
Corrected charge        :          1.00000000000000
Outlying charge corr.   :          0.00000602580422 Eh               0.00016 eV
Free-energy (cav+disp)  :          0.00515182716749 Eh               0.14019 eV

---------------
SCF CONVERGENCE
---------------

  Last Energy change         ...   -2.1937e-09  Tolerance :   1.0000e-08
  Last MAX-Density change    ...    9.6503e-05  Tolerance :   1.0000e-07
  Last RMS-Density change    ...    1.0935e-06  Tolerance :   5.0000e-09
  Last DIIS Error            ...    4.3115e-04  Tolerance :   5.0000e-07
  Last Orbital Gradient      ...    6.1974e-05  Tolerance :   1.0000e-05
  Last Orbital Rotation      ...    5.5029e-04  Tolerance :   1.0000e-05


----------------------
UHF SPIN CONTAMINATION
----------------------

Warning: in a DFT calculation there is little theoretical justification to 
         calculate <S**2> as in Hartree-Fock theory. We will do it anyways
         but you should keep in mind that the values have only limited relevance

Expectation value of <S**2>     :     0.754100
Ideal value S*(S+1) for S=0.5   :     0.750000
Deviation                       :     0.004100

----------------
ORBITAL ENERGIES
----------------
                 SPIN UP ORBITALS
  NO   OCC          E(Eh)            E(eV) 
   0   1.0000     -24.747818      -673.4224 
   1   1.0000     -24.743989      -673.3182 
   2   1.0000     -24.743010      -673.2915 
   3   1.0000     -24.742319      -673.2727 
   4   1.0000     -24.741656      -673.2547 
   5   1.0000     -24.740673      -673.2279 
   6   1.0000     -24.740260      -673.2167 
   7   1.0000     -24.739696      -673.2014 
   8   1.0000     -24.733569      -673.0346 
   9   1.0000     -24.732255      -672.9989 
  10   1.0000     -24.717305      -672.5921 
  11   1.0000     -24.711122      -672.4238 
  12   1.0000     -24.696710      -672.0316 
  13   1.0000     -24.696395      -672.0231 
  14   1.0000     -19.059333      -518.6308 
  15   1.0000     -19.058842      -518.6175 
  16   1.0000     -10.460019      -284.6316 
  17   1.0000     -10.404824      -283.1297 
  18   1.0000     -10.401885      -283.0497 
  19   1.0000     -10.400540      -283.0131 
  20   1.0000     -10.377179      -282.3774 
  21   1.0000     -10.340100      -281.3684 
  22   1.0000     -10.315829      -280.7080 
  23   1.0000     -10.252931      -278.9964 
  24   1.0000      -1.352580       -36.8056 
  25   1.0000      -1.323076       -36.0027 
  26   1.0000      -1.306809       -35.5601 
  27   1.0000      -1.301184       -35.4070 
  28   1.0000      -1.289176       -35.0803 
  29   1.0000      -1.281848       -34.8809 
  30   1.0000      -1.264954       -34.4211 
  31   1.0000      -1.259558       -34.2743 
  32   1.0000      -1.259127       -34.2626 
  33   1.0000      -1.255565       -34.1657 
  34   1.0000      -1.248337       -33.9690 
  35   1.0000      -1.242059       -33.7981 
  36   1.0000      -1.223518       -33.2936 
  37   1.0000      -1.202410       -32.7192 
  38   1.0000      -1.022890       -27.8343 
  39   1.0000      -0.940209       -25.5844 
  40   1.0000      -0.850278       -23.1372 
  41   1.0000      -0.829344       -22.5676 
  42   1.0000      -0.792358       -21.5612 
  43   1.0000      -0.755349       -20.5541 
  44   1.0000      -0.711457       -19.3597 
  45   1.0000      -0.688407       -18.7325 
  46   1.0000      -0.659760       -17.9530 
  47   1.0000      -0.646300       -17.5867 
  48   1.0000      -0.643136       -17.5006 
  49   1.0000      -0.636128       -17.3099 
  50   1.0000      -0.622087       -16.9279 
  51   1.0000      -0.617849       -16.8125 
  52   1.0000      -0.615540       -16.7497 
  53   1.0000      -0.606477       -16.5031 
  54   1.0000      -0.602316       -16.3898 
  55   1.0000      -0.589705       -16.0467 
  56   1.0000      -0.587569       -15.9886 
  57   1.0000      -0.577616       -15.7177 
  58   1.0000      -0.573254       -15.5990 
  59   1.0000      -0.557774       -15.1778 
  60   1.0000      -0.548641       -14.9293 
  61   1.0000      -0.525786       -14.3074 
  62   1.0000      -0.513376       -13.9697 
  63   1.0000      -0.508156       -13.8276 
  64   1.0000      -0.503273       -13.6948 
  65   1.0000      -0.498638       -13.5686 
  66   1.0000      -0.495535       -13.4842 
  67   1.0000      -0.490239       -13.3401 
  68   1.0000      -0.485108       -13.2005 
  69   1.0000      -0.479835       -13.0570 
  70   1.0000      -0.472886       -12.8679 
  71   1.0000      -0.468685       -12.7536 
  72   1.0000      -0.462831       -12.5943 
  73   1.0000      -0.461779       -12.5656 
  74   1.0000      -0.461200       -12.5499 
  75   1.0000      -0.455791       -12.4027 
  76   1.0000      -0.452748       -12.3199 
  77   1.0000      -0.451417       -12.2837 
  78   1.0000      -0.447883       -12.1875 
  79   1.0000      -0.441979       -12.0269 
  80   1.0000      -0.440721       -11.9926 
  81   1.0000      -0.440218       -11.9789 
  82   1.0000      -0.439471       -11.9586 
  83   1.0000      -0.428346       -11.6559 
  84   1.0000      -0.426703       -11.6112 
  85   1.0000      -0.413839       -11.2611 
  86   1.0000      -0.409584       -11.1453 
  87   1.0000      -0.406571       -11.0634 
  88   1.0000      -0.398334       -10.8392 
  89   1.0000      -0.384189       -10.4543 
  90   1.0000      -0.370882       -10.0922 
  91   1.0000      -0.353371        -9.6157 
  92   1.0000      -0.263443        -7.1686 
  93   1.0000      -0.248786        -6.7698 
  94   1.0000      -0.237293        -6.4571 
  95   1.0000      -0.235314        -6.4032 
  96   0.0000       0.000315         0.0086 
  97   0.0000       0.020824         0.5666 
  98   0.0000       0.029139         0.7929 
  99   0.0000       0.058644         1.5958 
 100   0.0000       0.075293         2.0488 
 101   0.0000       0.082032         2.2322 
 102   0.0000       0.101656         2.7662 
 103   0.0000       0.107760         2.9323 
 104   0.0000       0.117910         3.2085 
 105   0.0000       0.124333         3.3833 
 106   0.0000       0.137315         3.7365 

                 SPIN DOWN ORBITALS
  NO   OCC          E(Eh)            E(eV) 
   0   1.0000     -24.743991      -673.3182 
   1   1.0000     -24.743357      -673.3010 
   2   1.0000     -24.743008      -673.2915 
   3   1.0000     -24.742287      -673.2719 
   4   1.0000     -24.741657      -673.2547 
   5   1.0000     -24.740640      -673.2270 
   6   1.0000     -24.740250      -673.2164 
   7   1.0000     -24.739648      -673.2000 
   8   1.0000     -24.733180      -673.0241 
   9   1.0000     -24.731542      -672.9795 
  10   1.0000     -24.716805      -672.5785 
  11   1.0000     -24.709499      -672.3797 
  12   1.0000     -24.696628      -672.0294 
  13   1.0000     -24.696310      -672.0208 
  14   1.0000     -19.059286      -518.6295 
  15   1.0000     -19.058827      -518.6170 
  16   1.0000     -10.459970      -284.6303 
  17   1.0000     -10.404713      -283.1266 
  18   1.0000     -10.401431      -283.0373 
  19   1.0000     -10.401173      -283.0303 
  20   1.0000     -10.377919      -282.3975 
  21   1.0000     -10.339966      -281.3648 
  22   1.0000     -10.301389      -280.3151 
  23   1.0000     -10.252933      -278.9965 
  24   1.0000      -1.352538       -36.8044 
  25   1.0000      -1.322548       -35.9884 
  26   1.0000      -1.306315       -35.5466 
  27   1.0000      -1.299380       -35.3579 
  28   1.0000      -1.284940       -34.9650 
  29   1.0000      -1.276077       -34.7238 
  30   1.0000      -1.264882       -34.4192 
  31   1.0000      -1.259512       -34.2731 
  32   1.0000      -1.258641       -34.2494 
  33   1.0000      -1.255316       -34.1589 
  34   1.0000      -1.248177       -33.9646 
  35   1.0000      -1.240864       -33.7656 
  36   1.0000      -1.221001       -33.2251 
  37   1.0000      -1.202084       -32.7104 
  38   1.0000      -1.022833       -27.8327 
  39   1.0000      -0.940139       -25.5825 
  40   1.0000      -0.842776       -22.9331 
  41   1.0000      -0.820059       -22.3149 
  42   1.0000      -0.790335       -21.5061 
  43   1.0000      -0.750322       -20.4173 
  44   1.0000      -0.707847       -19.2615 
  45   1.0000      -0.687302       -18.7024 
  46   1.0000      -0.656207       -17.8563 
  47   1.0000      -0.644679       -17.5426 
  48   1.0000      -0.641745       -17.4628 
  49   1.0000      -0.635962       -17.3054 
  50   1.0000      -0.620287       -16.8789 
  51   1.0000      -0.616482       -16.7753 
  52   1.0000      -0.612595       -16.6696 
  53   1.0000      -0.605094       -16.4655 
  54   1.0000      -0.600638       -16.3442 
  55   1.0000      -0.588746       -16.0206 
  56   1.0000      -0.583300       -15.8724 
  57   1.0000      -0.576899       -15.6982 
  58   1.0000      -0.571672       -15.5560 
  59   1.0000      -0.555613       -15.1190 
  60   1.0000      -0.546316       -14.8660 
  61   1.0000      -0.513228       -13.9657 
  62   1.0000      -0.508620       -13.8403 
  63   1.0000      -0.503942       -13.7130 
  64   1.0000      -0.499069       -13.5804 
  65   1.0000      -0.496781       -13.5181 
  66   1.0000      -0.495009       -13.4699 
  67   1.0000      -0.487971       -13.2784 
  68   1.0000      -0.483690       -13.1619 
  69   1.0000      -0.478822       -13.0294 
  70   1.0000      -0.471238       -12.8230 
  71   1.0000      -0.467876       -12.7316 
  72   1.0000      -0.462704       -12.5908 
  73   1.0000      -0.460756       -12.5378 
  74   1.0000      -0.458480       -12.4759 
  75   1.0000      -0.453624       -12.3437 
  76   1.0000      -0.451412       -12.2835 
  77   1.0000      -0.450686       -12.2638 
  78   1.0000      -0.447451       -12.1758 
  79   1.0000      -0.441401       -12.0111 
  80   1.0000      -0.439868       -11.9694 
  81   1.0000      -0.438789       -11.9401 
  82   1.0000      -0.438138       -11.9223 
  83   1.0000      -0.427041       -11.6204 
  84   1.0000      -0.424404       -11.5486 
  85   1.0000      -0.412657       -11.2290 
  86   1.0000      -0.409196       -11.1348 
  87   1.0000      -0.404377       -11.0036 
  88   1.0000      -0.398223       -10.8362 
  89   1.0000      -0.384067       -10.4510 
  90   1.0000      -0.368711       -10.0331 
  91   1.0000      -0.350908        -9.5487 
  92   1.0000      -0.248779        -6.7696 
  93   1.0000      -0.237443        -6.4612 
  94   1.0000      -0.235293        -6.4026 
  95   0.0000      -0.119013        -3.2385 
  96   0.0000       0.002529         0.0688 
  97   0.0000       0.025843         0.7032 
  98   0.0000       0.030627         0.8334 
  99   0.0000       0.061498         1.6734 
 100   0.0000       0.080583         2.1928 
 101   0.0000       0.088467         2.4073 
 102   0.0000       0.106017         2.8849 
 103   0.0000       0.108791         2.9603 
 104   0.0000       0.121188         3.2977 
 105   0.0000       0.127258         3.4629 
*Only the first 10 virtual orbitals were printed.

                    ********************************
                    * MULLIKEN POPULATION ANALYSIS *
                    ********************************

--------------------------------------------
MULLIKEN ATOMIC CHARGES AND SPIN POPULATIONS
--------------------------------------------
   0 C :    0.142589   -0.000409
   1 O :   -0.478382    0.001583
   2 O :   -0.485868    0.000623
   3 C :    0.362185   -0.001616
   4 C :    0.337995    0.000236
   5 C :    0.119452    0.832516
   6 C :    0.385963   -0.017390
   7 C :    0.295368    0.029351
   8 C :    0.325259    0.004396
   9 C :    0.475982    0.002069
  10 F :   -0.218509    0.001152
  11 F :   -0.219661    0.001670
  12 F :   -0.196907    0.029603
  13 F :   -0.198951    0.008732
  14 F :   -0.149436    0.085494
  15 F :   -0.179257    0.013108
  16 F :   -0.174173    0.006765
  17 F :   -0.175103    0.000657
  18 F :   -0.173445    0.000676
  19 F :   -0.167385   -0.000050
  20 F :   -0.165012    0.000223
  21 F :   -0.155856   -0.000024
  22 F :   -0.153831    0.000595
  23 F :   -0.153016    0.000039
Sum of atomic charges         :   -1.0000000
Sum of atomic spin populations:    1.0000000

-----------------------------------------------------
MULLIKEN REDUCED ORBITAL CHARGES AND SPIN POPULATIONS
-----------------------------------------------------
CHARGE
  0 C s       :     3.046857  s :     3.046857
      pz      :     0.871497  p :     2.544616
      px      :     0.861798
      py      :     0.811321
      dz2     :     0.038044  d :     0.241171
      dxz     :     0.049974
      dyz     :     0.041028
      dx2y2   :     0.069017
      dxy     :     0.043110
      f0      :     0.003785  f :     0.024766
      f+1     :     0.001753
      f-1     :     0.003519
      f+2     :     0.002201
      f-2     :     0.005885
      f+3     :     0.004094
      f-3     :     0.003530

  1 O s       :     3.763797  s :     3.763797
      pz      :     1.510189  p :     4.685807
      px      :     1.706422
      py      :     1.469195
      dz2     :     0.006494  d :     0.027116
      dxz     :     0.003653
      dyz     :     0.007909
      dx2y2   :     0.004797
      dxy     :     0.004263
      f0      :     0.000206  f :     0.001662
      f+1     :     0.000082
      f-1     :     0.000428
      f+2     :     0.000331
      f-2     :     0.000304
      f+3     :     0.000151
      f-3     :     0.000160

  2 O s       :     3.764504  s :     3.764504
      pz      :     1.708289  p :     4.692682
      px      :     1.509040
      py      :     1.475352
      dz2     :     0.002943  d :     0.027030
      dxz     :     0.003828
      dyz     :     0.003944
      dx2y2   :     0.008294
      dxy     :     0.008021
      f0      :     0.000205  f :     0.001653
      f+1     :     0.000138
      f-1     :     0.000153
      f+2     :     0.000024
      f-2     :     0.000302
      f+3     :     0.000420
      f-3     :     0.000412

  3 C s       :     3.133267  s :     3.133267
      pz      :     0.728228  p :     2.232479
      px      :     0.826167
      py      :     0.678084
      dz2     :     0.049591  d :     0.245808
      dxz     :     0.049877
      dyz     :     0.054150
      dx2y2   :     0.046851
      dxy     :     0.045339
      f0      :     0.005580  f :     0.026261
      f+1     :     0.003276
      f-1     :     0.003633
      f+2     :     0.002627
      f-2     :     0.004126
      f+3     :     0.002289
      f-3     :     0.004731

  4 C s       :     3.122332  s :     3.122332
      pz      :     0.648835  p :     2.235757
      px      :     0.854501
      py      :     0.732421
      dz2     :     0.048491  d :     0.276692
      dxz     :     0.057449
      dyz     :     0.064532
      dx2y2   :     0.047937
      dxy     :     0.058283
      f0      :     0.005469  f :     0.027225
      f+1     :     0.003928
      f-1     :     0.004775
      f+2     :     0.002517
      f-2     :     0.003329
      f+3     :     0.002419
      f-3     :     0.004788

  5 C s       :     3.247815  s :     3.247815
      pz      :     0.655359  p :     2.467372
      px      :     0.870933
      py      :     0.941081
      dz2     :     0.033169  d :     0.147820
      dxz     :     0.051232
      dyz     :     0.026540
      dx2y2   :     0.016147
      dxy     :     0.020732
      f0      :     0.004196  f :     0.017541
      f+1     :     0.003742
      f-1     :     0.002573
      f+2     :     0.002283
      f-2     :     0.002105
      f+3     :     0.001391
      f-3     :     0.001251

  6 C s       :     3.084614  s :     3.084614
      pz      :     0.607895  p :     2.210028
      px      :     0.868279
      py      :     0.733854
      dz2     :     0.074949  d :     0.291782
      dxz     :     0.061057
      dyz     :     0.052592
      dx2y2   :     0.044620
      dxy     :     0.058564
      f0      :     0.005416  f :     0.027613
      f+1     :     0.002730
      f-1     :     0.005119
      f+2     :     0.004539
      f-2     :     0.004974
      f+3     :     0.002640
      f-3     :     0.002195

  7 C s       :     3.163117  s :     3.163117
      pz      :     0.595856  p :     2.226433
      px      :     0.906178
      py      :     0.724399
      dz2     :     0.068318  d :     0.287022
      dxz     :     0.060642
      dyz     :     0.062757
      dx2y2   :     0.045920
      dxy     :     0.049384
      f0      :     0.004648  f :     0.028061
      f+1     :     0.004005
      f-1     :     0.007023
      f+2     :     0.003298
      f-2     :     0.003909
      f+3     :     0.002894
      f-3     :     0.002284

  8 C s       :     3.130019  s :     3.130019
      pz      :     0.658553  p :     2.238974
      px      :     0.904072
      py      :     0.676348
      dz2     :     0.055609  d :     0.277719
      dxz     :     0.048515
      dyz     :     0.075683
      dx2y2   :     0.042330
      dxy     :     0.055582
      f0      :     0.004807  f :     0.028029
      f+1     :     0.003742
      f-1     :     0.006534
      f+2     :     0.003153
      f-2     :     0.002937
      f+3     :     0.004102
      f-3     :     0.002755

  9 C s       :     3.025497  s :     3.025497
      pz      :     0.695093  p :     2.113650
      px      :     0.717907
      py      :     0.700650
      dz2     :     0.057969  d :     0.344488
      dxz     :     0.075797
      dyz     :     0.076544
      dx2y2   :     0.058933
      dxy     :     0.075245
      f0      :     0.006469  f :     0.040382
      f+1     :     0.006801
      f-1     :     0.006534
      f+2     :     0.005395
      f-2     :     0.002608
      f+3     :     0.006618
      f-3     :     0.005957

 10 F s       :     3.909999  s :     3.909999
      pz      :     1.903950  p :     5.292744
      px      :     1.801407
      py      :     1.587388
      dz2     :     0.002140  d :     0.015109
      dxz     :     0.000898
      dyz     :     0.002442
      dx2y2   :     0.004083
      dxy     :     0.005547
      f0      :     0.000056  f :     0.000658
      f+1     :     0.000041
      f-1     :     0.000106
      f+2     :     0.000026
      f-2     :     0.000073
      f+3     :     0.000218
      f-3     :     0.000138

 11 F s       :     3.908566  s :     3.908566
      pz      :     1.555495  p :     5.295432
      px      :     1.844660
      py      :     1.895278
      dz2     :     0.005543  d :     0.015006
      dxz     :     0.005030
      dyz     :     0.002677
      dx2y2   :     0.000902
      dxy     :     0.000854
      f0      :     0.000166  f :     0.000657
      f+1     :     0.000232
      f-1     :     0.000096
      f+2     :     0.000073
      f-2     :     0.000074
      f+3     :     0.000008
      f-3     :     0.000008

 12 F s       :     3.911391  s :     3.911391
      pz      :     1.895861  p :     5.269789
      px      :     1.828988
      py      :     1.544940
      dz2     :     0.002148  d :     0.015072
      dxz     :     0.000816
      dyz     :     0.002443
      dx2y2   :     0.004522
      dxy     :     0.005143
      f0      :     0.000053  f :     0.000655
      f+1     :     0.000033
      f-1     :     0.000108
      f+2     :     0.000036
      f-2     :     0.000065
      f+3     :     0.000218
      f-3     :     0.000142

 13 F s       :     3.917139  s :     3.917139
      pz      :     1.491473  p :     5.265646
      px      :     1.873713
      py      :     1.900460
      dz2     :     0.007114  d :     0.015499
      dxz     :     0.004528
      dyz     :     0.002951
      dx2y2   :     0.000410
      dxy     :     0.000497
      f0      :     0.000253  f :     0.000667
      f+1     :     0.000219
      f-1     :     0.000115
      f+2     :     0.000035
      f-2     :     0.000039
      f+3     :     0.000003
      f-3     :     0.000003

 14 F s       :     3.917400  s :     3.917400
      pz      :     1.521153  p :     5.213256
      px      :     1.900327
      py      :     1.791776
      dz2     :     0.007043  d :     0.018016
      dxz     :     0.003625
      dyz     :     0.005737
      dx2y2   :     0.000914
      dxy     :     0.000697
      f0      :     0.000241  f :     0.000764
      f+1     :     0.000127
      f-1     :     0.000247
      f+2     :     0.000077
      f-2     :     0.000061
      f+3     :     0.000005
      f-3     :     0.000005

 15 F s       :     3.915972  s :     3.915972
      pz      :     1.594970  p :     5.246895
      px      :     1.838559
      py      :     1.813366
      dz2     :     0.004499  d :     0.015716
      dxz     :     0.004129
      dyz     :     0.004394
      dx2y2   :     0.001222
      dxy     :     0.001472
      f0      :     0.000114  f :     0.000674
      f+1     :     0.000152
      f-1     :     0.000167
      f+2     :     0.000081
      f-2     :     0.000127
      f+3     :     0.000015
      f-3     :     0.000019

 16 F s       :     3.916772  s :     3.916772
      pz      :     1.672785  p :     5.240534
      px      :     1.905715
      py      :     1.662034
      dz2     :     0.003070  d :     0.016168
      dxz     :     0.001828
      dyz     :     0.006629
      dx2y2   :     0.002582
      dxy     :     0.002059
      f0      :     0.000078  f :     0.000699
      f+1     :     0.000025
      f-1     :     0.000220
      f+2     :     0.000186
      f-2     :     0.000101
      f+3     :     0.000043
      f-3     :     0.000046

 17 F s       :     3.917312  s :     3.917312
      pz      :     1.750603  p :     5.240649
      px      :     1.896280
      py      :     1.593766
      dz2     :     0.002284  d :     0.016435
      dxz     :     0.001418
      dyz     :     0.006107
      dx2y2   :     0.003790
      dxy     :     0.002835
      f0      :     0.000079  f :     0.000707
      f+1     :     0.000010
      f-1     :     0.000154
      f+2     :     0.000195
      f-2     :     0.000103
      f+3     :     0.000075
      f-3     :     0.000091

 18 F s       :     3.918515  s :     3.918515
      pz      :     1.494996  p :     5.237674
      px      :     1.879169
      py      :     1.863508
      dz2     :     0.007170  d :     0.016547
      dxz     :     0.004158
      dyz     :     0.003984
      dx2y2   :     0.000642
      dxy     :     0.000592
      f0      :     0.000255  f :     0.000710
      f+1     :     0.000173
      f-1     :     0.000181
      f+2     :     0.000045
      f-2     :     0.000049
      f+3     :     0.000003
      f-3     :     0.000004

 19 F s       :     3.915811  s :     3.915811
      pz      :     1.856114  p :     5.234392
      px      :     1.895666
      py      :     1.482611
      dz2     :     0.002133  d :     0.016472
      dxz     :     0.000466
      dyz     :     0.004415
      dx2y2   :     0.005778
      dxy     :     0.003681
      f0      :     0.000075  f :     0.000711
      f+1     :     0.000007
      f-1     :     0.000121
      f+2     :     0.000149
      f-2     :     0.000040
      f+3     :     0.000134
      f-3     :     0.000184

 20 F s       :     3.913724  s :     3.913724
      pz      :     1.481659  p :     5.233965
      px      :     1.862206
      py      :     1.890100
      dz2     :     0.007613  d :     0.016600
      dxz     :     0.004809
      dyz     :     0.003197
      dx2y2   :     0.000570
      dxy     :     0.000410
      f0      :     0.000278  f :     0.000723
      f+1     :     0.000226
      f-1     :     0.000132
      f+2     :     0.000048
      f-2     :     0.000034
      f+3     :     0.000003
      f-3     :     0.000002

 21 F s       :     3.912241  s :     3.912241
      pz      :     1.876960  p :     5.226244
      px      :     1.881276
      py      :     1.468008
      dz2     :     0.002341  d :     0.016615
      dxz     :     0.000287
      dyz     :     0.003895
      dx2y2   :     0.006231
      dxy     :     0.003862
      f0      :     0.000071  f :     0.000755
      f+1     :     0.000014
      f-1     :     0.000142
      f+2     :     0.000119
      f-2     :     0.000028
      f+3     :     0.000171
      f-3     :     0.000210

 22 F s       :     3.911266  s :     3.911266
      pz      :     1.871946  p :     5.225131
      px      :     1.480560
      py      :     1.872624
      dz2     :     0.002345  d :     0.016670
      dxz     :     0.004040
      dyz     :     0.000415
      dx2y2   :     0.005954
      dxy     :     0.003915
      f0      :     0.000075  f :     0.000765
      f+1     :     0.000138
      f-1     :     0.000014
      f+2     :     0.000124
      f-2     :     0.000043
      f+3     :     0.000197
      f-3     :     0.000174

 23 F s       :     3.910795  s :     3.910795
      pz      :     1.459086  p :     5.224666
      px      :     1.886503
      py      :     1.879077
      dz2     :     0.008529  d :     0.016786
      dxz     :     0.003772
      dyz     :     0.003896
      dx2y2   :     0.000364
      dxy     :     0.000225
      f0      :     0.000344  f :     0.000769
      f+1     :     0.000178
      f-1     :     0.000192
      f+2     :     0.000030
      f-2     :     0.000021
      f+3     :     0.000002
      f-3     :     0.000002


SPIN
  0 C s       :    -0.000695  s :    -0.000695
      pz      :     0.000381  p :     0.000303
      px      :    -0.000144
      py      :     0.000066
      dz2     :     0.000005  d :    -0.000030
      dxz     :    -0.000033
      dyz     :     0.000026
      dx2y2   :     0.000002
      dxy     :    -0.000031
      f0      :    -0.000000  f :     0.000013
      f+1     :     0.000000
      f-1     :     0.000002
      f+2     :     0.000000
      f-2     :     0.000006
      f+3     :     0.000002
      f-3     :     0.000004

  1 O s       :     0.000047  s :     0.000047
      pz      :     0.000816  p :     0.001541
      px      :     0.000564
      py      :     0.000161
      dz2     :    -0.000003  d :    -0.000005
      dxz     :     0.000000
      dyz     :     0.000000
      dx2y2   :    -0.000001
      dxy     :    -0.000002
      f0      :    -0.000000  f :    -0.000001
      f+1     :    -0.000000
      f-1     :    -0.000000
      f+2     :    -0.000000
      f-2     :    -0.000000
      f+3     :    -0.000000
      f-3     :    -0.000000

  2 O s       :     0.000134  s :     0.000134
      pz      :    -0.000105  p :     0.000486
      px      :    -0.000024
      py      :     0.000615
      dz2     :     0.000001  d :     0.000002
      dxz     :     0.000000
      dyz     :     0.000001
      dx2y2   :     0.000001
      dxy     :    -0.000000
      f0      :     0.000000  f :     0.000000
      f+1     :     0.000000
      f-1     :     0.000000
      f+2     :    -0.000000
      f-2     :    -0.000000
      f+3     :    -0.000000
      f-3     :     0.000000

  3 C s       :    -0.001385  s :    -0.001385
      pz      :     0.000634  p :    -0.000103
      px      :    -0.003629
      py      :     0.002892
      dz2     :    -0.000068  d :    -0.000162
      dxz     :    -0.000103
      dyz     :    -0.000062
      dx2y2   :     0.000050
      dxy     :     0.000021
      f0      :    -0.000003  f :     0.000034
      f+1     :    -0.000001
      f-1     :     0.000001
      f+2     :     0.000003
      f-2     :    -0.000006
      f+3     :     0.000028
      f-3     :     0.000012

  4 C s       :    -0.006624  s :    -0.006624
      pz      :    -0.005187  p :    -0.009159
      px      :    -0.018078
      py      :     0.014106
      dz2     :     0.002856  d :     0.014358
      dxz     :    -0.000278
      dyz     :     0.001530
      dx2y2   :    -0.000395
      dxy     :     0.010644
      f0      :     0.000041  f :     0.001661
      f+1     :     0.000353
      f-1     :     0.000022
      f+2     :     0.000019
      f-2     :     0.000719
      f+3     :     0.000003
      f-3     :     0.000504

  5 C s       :     0.044984  s :     0.044984
      pz      :     0.103954  p :     0.785555
      px      :     0.059474
      py      :     0.622127
      dz2     :     0.001298  d :     0.003850
      dxz     :     0.001380
      dyz     :     0.001198
      dx2y2   :    -0.000889
      dxy     :     0.000863
      f0      :    -0.000189  f :    -0.001873
      f+1     :    -0.000028
      f-1     :    -0.000498
      f+2     :    -0.000395
      f-2     :    -0.000149
      f+3     :    -0.000359
      f-3     :    -0.000255

  6 C s       :    -0.014682  s :    -0.014682
      pz      :    -0.003975  p :    -0.027308
      px      :    -0.022280
      py      :    -0.001052
      dz2     :     0.000239  d :     0.023309
      dxz     :     0.004957
      dyz     :    -0.000021
      dx2y2   :     0.006017
      dxy     :     0.012117
      f0      :     0.000090  f :     0.001291
      f+1     :     0.000054
      f-1     :     0.000149
      f+2     :     0.000108
      f-2     :    -0.000001
      f+3     :     0.000728
      f-3     :     0.000162

  7 C s       :    -0.000045  s :    -0.000045
      pz      :     0.002901  p :     0.025228
      px      :     0.009049
      py      :     0.013278
      dz2     :     0.000545  d :     0.004182
      dxz     :     0.000119
      dyz     :     0.000008
      dx2y2   :     0.003446
      dxy     :     0.000064
      f0      :    -0.000009  f :    -0.000014
      f+1     :    -0.000002
      f-1     :    -0.000009
      f+2     :     0.000002
      f-2     :     0.000002
      f+3     :     0.000023
      f-3     :    -0.000021

  8 C s       :    -0.001050  s :    -0.001050
      pz      :     0.000126  p :     0.004684
      px      :     0.002543
      py      :     0.002015
      dz2     :     0.000051  d :     0.000733
      dxz     :     0.000061
      dyz     :     0.000004
      dx2y2   :     0.000439
      dxy     :     0.000177
      f0      :    -0.000001  f :     0.000029
      f+1     :     0.000002
      f-1     :     0.000001
      f+2     :     0.000001
      f-2     :    -0.000001
      f+3     :     0.000013
      f-3     :     0.000015

  9 C s       :     0.000822  s :     0.000822
      pz      :     0.000437  p :     0.001020
      px      :    -0.000120
      py      :     0.000703
      dz2     :     0.000036  d :     0.000211
      dxz     :    -0.000012
      dyz     :     0.000018
      dx2y2   :     0.000166
      dxy     :     0.000003
      f0      :    -0.000001  f :     0.000016
      f+1     :    -0.000000
      f-1     :     0.000000
      f+2     :     0.000008
      f-2     :     0.000004
      f+3     :     0.000003
      f-3     :     0.000003

 10 F s       :     0.000506  s :     0.000506
      pz      :    -0.000001  p :     0.000594
      px      :     0.000303
      py      :     0.000291
      dz2     :     0.000014  d :     0.000050
      dxz     :    -0.000001
      dyz     :     0.000001
      dx2y2   :     0.000033
      dxy     :     0.000004
      f0      :     0.000000  f :     0.000002
      f+1     :     0.000000
      f-1     :     0.000000
      f+2     :     0.000000
      f-2     :    -0.000000
      f+3     :    -0.000000
      f-3     :     0.000002

 11 F s       :     0.000057  s :     0.000057
      pz      :    -0.000076  p :     0.001605
      px      :     0.000840
      py      :     0.000842
      dz2     :     0.000003  d :     0.000008
      dxz     :    -0.000000
      dyz     :     0.000003
      dx2y2   :     0.000001
      dxy     :     0.000001
      f0      :    -0.000000  f :    -0.000000
      f+1     :    -0.000000
      f-1     :    -0.000000
      f+2     :     0.000000
      f-2     :     0.000000
      f+3     :    -0.000000
      f-3     :    -0.000000

 12 F s       :    -0.000168  s :    -0.000168
      pz      :     0.004204  p :     0.029772
      px      :     0.014219
      py      :     0.011348
      dz2     :    -0.000013  d :    -0.000006
      dxz     :     0.000058
      dyz     :    -0.000007
      dx2y2   :     0.000011
      dxy     :    -0.000056
      f0      :     0.000000  f :     0.000005
      f+1     :     0.000000
      f-1     :     0.000000
      f+2     :    -0.000001
      f-2     :     0.000001
      f+3     :     0.000003
      f-3     :     0.000000

 13 F s       :    -0.000162  s :    -0.000162
      pz      :     0.005091  p :     0.008877
      px      :     0.001097
      py      :     0.002689
      dz2     :    -0.000004  d :     0.000017
      dxz     :    -0.000006
      dyz     :     0.000011
      dx2y2   :    -0.000001
      dxy     :     0.000017
      f0      :    -0.000000  f :    -0.000001
      f+1     :    -0.000001
      f-1     :     0.000000
      f+2     :    -0.000000
      f-2     :     0.000000
      f+3     :    -0.000000
      f-3     :     0.000000

 14 F s       :     0.003390  s :     0.003390
      pz      :     0.001147  p :     0.080388
      px      :     0.005590
      py      :     0.073651
      dz2     :     0.000545  d :     0.001681
      dxz     :     0.000119
      dyz     :     0.000817
      dx2y2   :     0.000188
      dxy     :     0.000011
      f0      :     0.000019  f :     0.000035
      f+1     :     0.000005
      f-1     :    -0.000002
      f+2     :     0.000012
      f-2     :    -0.000002
      f+3     :     0.000001
      f-3     :     0.000002

 15 F s       :     0.000010  s :     0.000010
      pz      :     0.006678  p :     0.013116
      px      :     0.005464
      py      :     0.000973
      dz2     :    -0.000005  d :    -0.000024
      dxz     :    -0.000034
      dyz     :    -0.000007
      dx2y2   :     0.000027
      dxy     :    -0.000004
      f0      :     0.000001  f :     0.000005
      f+1     :     0.000002
      f-1     :     0.000000
      f+2     :     0.000001
      f-2     :     0.000001
      f+3     :     0.000001
      f-3     :    -0.000000

[...]
----------------------------------------------------------------------------
  7:     18.53   0.000201    1.01  0.003377  ( 0.006265 -0.050338  0.028357)
  8:     28.98   0.000806    4.07  0.008680  ( 0.065179  0.032054  0.058347)
  9:     35.80   0.000016    0.08  0.000137  (-0.006180 -0.003800 -0.009199)
 10:     36.60   0.000046    0.23  0.000394  (-0.009964 -0.014007  0.009907)
 11:     53.06   0.000042    0.21  0.000248  (-0.007352 -0.003910  0.013349)
 12:     65.60   0.000240    1.21  0.001141  (-0.022115  0.005442 -0.024938)
 13:     89.00   0.000162    0.82  0.000568  ( 0.003182  0.023457 -0.002752)
 14:     99.92   0.001308    6.61  0.004084  ( 0.030187 -0.039556  0.040094)
 15:    117.33   0.000580    2.93  0.001542  (-0.037104  0.012709 -0.001942)
 16:    161.60   0.000008    0.04  0.000016  ( 0.000146  0.000460  0.003908)
 17:    176.86   0.000538    2.72  0.000949  ( 0.019606 -0.016205 -0.017366)
 18:    189.52   0.000312    1.58  0.000514  ( 0.007994  0.016365  0.013482)
 19:    196.24   0.001437    7.26  0.002285  (-0.024840  0.011574 -0.039167)
 20:    205.22   0.001204    6.09  0.001831  (-0.020436 -0.028143  0.024927)
 21:    229.26   0.000150    0.76  0.000204  (-0.005464 -0.008278 -0.010257)
 22:    239.65   0.000161    0.81  0.000210  (-0.008792  0.011001  0.003374)
 23:    243.05   0.000031    0.16  0.000040  (-0.004790 -0.003497  0.002140)
 24:    267.50   0.000228    1.15  0.000266  (-0.010667 -0.002211 -0.012157)
 25:    280.71   0.001147    5.80  0.001275  ( 0.034566 -0.000401 -0.008952)
 26:    284.52   0.000571    2.88  0.000626  ( 0.023773 -0.003713  0.006863)
 27:    309.79   0.000194    0.98  0.000196  ( 0.012025 -0.007103 -0.000836)
 28:    324.92   0.000233    1.18  0.000224  ( 0.013572 -0.006279  0.000279)
 29:    340.57   0.000099    0.50  0.000090  (-0.002283  0.003050 -0.008715)
 30:    357.21   0.000036    0.18  0.000031  ( 0.003978  0.000344 -0.003899)
 31:    362.05   0.000330    1.67  0.000284  ( 0.009916 -0.006810  0.011822)
 32:    370.45   0.000676    3.42  0.000569  (-0.022308  0.008465  0.000342)
 33:    373.66   0.000040    0.20  0.000033  ( 0.003271  0.002856 -0.003791)
 34:    393.37   0.000564    2.85  0.000448  ( 0.019884  0.006943 -0.002035)
 35:    440.28   0.000085    0.43  0.000060  (-0.007325  0.002454 -0.000574)
 36:    462.68   0.001271    6.42  0.000857  (-0.017247  0.019894 -0.012816)
 37:    502.64   0.001672    8.45  0.001038  ( 0.020615 -0.022653  0.010002)
 38:    520.30   0.010482   52.97  0.006287  ( 0.077164 -0.016553 -0.007666)
 39:    539.79   0.002445   12.36  0.001414  (-0.036554  0.000793 -0.008762)
 40:    552.15   0.002678   13.53  0.001513  (-0.030294  0.011741 -0.021395)
 41:    573.26   0.003296   16.66  0.001794  ( 0.024298 -0.021233 -0.027441)
 42:    581.33   0.005889   29.76  0.003161  ( 0.036836  0.042067  0.005876)
 43:    595.00   0.003422   17.29  0.001795  (-0.036570  0.020003 -0.007575)
 44:    622.00   0.012821   64.79  0.006432  (-0.079856  0.006562  0.003510)
 45:    649.72   0.009375   47.38  0.004503  (-0.062226  0.012634  0.021704)
 46:    688.05   0.022656  114.49  0.010276  ( 0.101239  0.004635 -0.002217)
 47:    696.93   0.003973   20.08  0.001779  ( 0.005275 -0.028893 -0.030268)
 48:    726.49   0.013982   70.66  0.006006  ( 0.056732  0.038272  0.036367)
 49:    773.92   0.005085   25.70  0.002050  ( 0.043163  0.013683  0.000477)
 50:    791.97   0.020472  103.46  0.008067  ( 0.051260  0.001609 -0.073733)
 51:    868.19   0.009394   47.47  0.003376  ( 0.038703  0.028891  0.032308)
 52:    995.00   0.007318   36.98  0.002295  (-0.021874  0.042003 -0.007237)
 53:   1031.87   0.048804  246.64  0.014760  ( 0.090970  0.080176  0.007479)
 54:   1070.41   0.051906  262.31  0.015132  (-0.021080 -0.091400 -0.079586)
 55:   1086.15   0.034826  176.00  0.010006  ( 0.061025  0.063386  0.047583)
 56:   1093.18   0.028733  145.20  0.008202  ( 0.019015 -0.063231  0.061987)
 57:   1119.82   0.090747  458.60  0.025289  (-0.020197  0.119887  0.102508)
 58:   1129.22   0.074353  375.75  0.020548  ( 0.004968 -0.075158  0.121960)
 59:   1142.57   0.019957  100.85  0.005451  ( 0.009304 -0.053726  0.049775)
 60:   1146.09   0.027285  137.89  0.007429  (-0.011217 -0.018977  0.083327)
 61:   1155.51   0.057436  290.26  0.015511  (-0.051243 -0.011520  0.112929)
 62:   1165.14   0.113094  571.53  0.030290  (-0.046269  0.142189 -0.089061)
 63:   1183.29   0.052238  263.99  0.013776  (-0.051650 -0.039597  0.097677)
 64:   1190.17   0.004624   23.37  0.001212  (-0.010264  0.006995 -0.032530)
 65:   1212.69   0.019787  100.00  0.005092  ( 0.064214 -0.010946 -0.029133)
 66:   1259.82   0.004568   23.08  0.001132  (-0.028914  0.007226  0.015597)
 67:   1318.40   0.016396   82.86  0.003881  (-0.010024  0.024422  0.056426)
 68:   1328.30   0.039045  197.32  0.009173  (-0.094961  0.009397 -0.008200)
 69:   1350.95   0.053516  270.45  0.012362  (-0.078320  0.006194  0.078673)
 70:   1395.79   0.004725   23.88  0.001056  ( 0.028651 -0.006742  0.013786)
 71:   1726.78   0.161577  816.54  0.029200  ( 0.076090  0.136100  0.069909)

* The epsilon (eps) is given for a Dirac delta lineshape.
** The dipole moment derivative (T) already includes vibrational overlap.

The first frequency considered to be a vibration is 7
The total number of vibrations considered is 65


--------------------------
THERMOCHEMISTRY AT 298.15K
--------------------------

Temperature         ...   298.15 K
Pressure            ...     1.00 atm
Total Mass          ...   394.06 AMU
Quasi RRHO          ...     True
Cut-Off Frequency   ...     1.00 cm^-1

Throughout the following assumptions are being made:
  (1) The electronic state is orbitally nondegenerate
      but the spin degeneracy is treated
  (2) There are no thermally accessible electronically excited states
  (3) Hindered rotations indicated by low frequency modes are not
      treated as such but are treated as vibrations and this may
      cause some error
  (4) All equations used are the standard statistical mechanics
      equations for an ideal gas
  (5) All vibrations are strictly harmonic

freq.      18.53  E(vib)   ...       0.57 
freq.      28.98  E(vib)   ...       0.55 
freq.      35.80  E(vib)   ...       0.54 
freq.      36.60  E(vib)   ...       0.54 
freq.      53.06  E(vib)   ...       0.52 
freq.      65.60  E(vib)   ...       0.50 
freq.      89.00  E(vib)   ...       0.47 
freq.      99.92  E(vib)   ...       0.46 
freq.     117.33  E(vib)   ...       0.44 
freq.     161.60  E(vib)   ...       0.39 
freq.     176.86  E(vib)   ...       0.38 
freq.     189.52  E(vib)   ...       0.36 
freq.     196.24  E(vib)   ...       0.36 
freq.     205.22  E(vib)   ...       0.35 
freq.     229.26  E(vib)   ...       0.32 
freq.     239.65  E(vib)   ...       0.31 
freq.     243.05  E(vib)   ...       0.31 
freq.     267.50  E(vib)   ...       0.29 
freq.     280.71  E(vib)   ...       0.28 
freq.     284.52  E(vib)   ...       0.28 
freq.     309.79  E(vib)   ...       0.26 
freq.     324.92  E(vib)   ...       0.24 
freq.     340.57  E(vib)   ...       0.23 
freq.     357.21  E(vib)   ...       0.22 
freq.     362.05  E(vib)   ...       0.22 
freq.     370.45  E(vib)   ...       0.21 
freq.     373.66  E(vib)   ...       0.21 
freq.     393.37  E(vib)   ...       0.20 
freq.     440.28  E(vib)   ...       0.17 
freq.     462.68  E(vib)   ...       0.16 
freq.     502.64  E(vib)   ...       0.14 
freq.     520.30  E(vib)   ...       0.13 
freq.     539.79  E(vib)   ...       0.12 
freq.     552.15  E(vib)   ...       0.12 
freq.     573.26  E(vib)   ...       0.11 
freq.     581.33  E(vib)   ...       0.11 
freq.     595.00  E(vib)   ...       0.10 
freq.     622.00  E(vib)   ...       0.09 
freq.     649.72  E(vib)   ...       0.08 
freq.     688.05  E(vib)   ...       0.07 
freq.     696.93  E(vib)   ...       0.07 
freq.     726.49  E(vib)   ...       0.06 
freq.     773.92  E(vib)   ...       0.05 
freq.     791.97  E(vib)   ...       0.05 
freq.     868.19  E(vib)   ...       0.04 
freq.     995.00  E(vib)   ...       0.02 
freq.    1031.87  E(vib)   ...       0.02 
freq.    1070.41  E(vib)   ...       0.02 
freq.    1086.15  E(vib)   ...       0.02 
freq.    1093.18  E(vib)   ...       0.02 
freq.    1119.82  E(vib)   ...       0.01 
freq.    1129.22  E(vib)   ...       0.01 
freq.    1142.57  E(vib)   ...       0.01 
freq.    1146.09  E(vib)   ...       0.01 
freq.    1155.51  E(vib)   ...       0.01 
freq.    1165.14  E(vib)   ...       0.01 
freq.    1183.29  E(vib)   ...       0.01 
freq.    1190.17  E(vib)   ...       0.01 
freq.    1212.69  E(vib)   ...       0.01 
freq.    1259.82  E(vib)   ...       0.01 
freq.    1318.40  E(vib)   ...       0.01 
freq.    1328.30  E(vib)   ...       0.01 
freq.    1350.95  E(vib)   ...       0.01 
freq.    1395.79  E(vib)   ...       0.00 
freq.    1726.78  E(vib)   ...       0.00 

------------
INNER ENERGY
------------

The inner energy is: U= E(el) + E(ZPE) + E(vib) + E(rot) + E(trans)
    E(el)   - is the total energy from the electronic structure calculation
              = E(kin-el) + E(nuc-el) + E(el-el) + E(nuc-nuc)
    E(ZPE)  - the the zero temperature vibrational energy from the frequency calculation
    E(vib)  - the the finite temperature correction to E(ZPE) due to population
              of excited vibrational states
    E(rot)  - is the rotational thermal energy
    E(trans)- is the translational thermal energy

Summary of contributions to the inner energy U:
Electronic energy                ...  -1853.28420676 Eh
Zero point energy                ...      0.09234962 Eh      57.95 kcal/mol
Thermal vibrational correction   ...      0.01905086 Eh      11.95 kcal/mol
Thermal rotational correction    ...      0.00141627 Eh       0.89 kcal/mol
Thermal translational correction ...      0.00141627 Eh       0.89 kcal/mol
-----------------------------------------------------------------------
Total thermal energy                  -1853.16997373 Eh


Summary of corrections to the electronic energy:
(perhaps to be used in another calculation)
Total thermal correction                  0.02188341 Eh      13.73 kcal/mol
Non-thermal (ZPE) correction              0.09234962 Eh      57.95 kcal/mol
-----------------------------------------------------------------------
Total correction                          0.11423303 Eh      71.68 kcal/mol


--------
ENTHALPY
--------

The enthalpy is H = U + kB*T
                kB is Boltzmann's constant
Total thermal energy              ...  -1853.16997373 Eh 
Thermal Enthalpy correction       ...      0.00094421 Eh       0.59 kcal/mol
-----------------------------------------------------------------------
Total Enthalpy                    ...  -1853.16902952 Eh


Note: Only C1 symmetry has been detected, increase convergence thresholds 
      if your molecule has a higher symmetry. Symmetry factor of 1.0 is   
      used for the rotational entropy correction. 
 

Note: Rotational entropy computed according to Herzberg 
Infrared and Raman Spectra, Chapter V,1, Van Nostrand Reinhold, 1945 
Point Group:  C1, Symmetry Number:   1  
Rotational constants in cm-1:     0.018114     0.004326     0.004135 

Vibrational entropy computed according to the QRRHO of S. Grimme
Chem.Eur.J. 2012 18 9955 using a reference frequency of 100.0 cm-1


-------
ENTROPY
-------

The entropy contributions are T*S = T*(S(el)+S(vib)+S(rot)+S(trans))
     S(el)   - electronic entropy
     S(vib)  - vibrational entropy
     S(rot)  - rotational entropy
     S(trans)- translational entropy
The entropies will be listed as multiplied by the temperature to get
units of energy

Electronic entropy                ...      0.00065446 Eh      0.41 kcal/mol
Vibrational entropy               ...      0.03431035 Eh     21.53 kcal/mol
Rotational entropy                ...      0.01656499 Eh     10.39 kcal/mol
Translational entropy             ...      0.02081341 Eh     13.06 kcal/mol
-----------------------------------------------------------------------
Final entropy term                ...      0.07234321 Eh     45.40 kcal/mol

In case the symmetry of your molecule has not been determined correctly
or in case you have a reason to use a different symmetry number we print 
out the resulting rotational entropy values for sn=1,12:

 non-linear molecules -----------------------------------
|  sn= 1 | S(rot)=       0.01656499 Eh     10.39 kcal/mol|
|  sn= 2 | S(rot)=       0.01591053 Eh      9.98 kcal/mol|
|  sn= 3 | S(rot)=       0.01552770 Eh      9.74 kcal/mol|
|  sn= 4 | S(rot)=       0.01525608 Eh      9.57 kcal/mol|
|  sn= 5 | S(rot)=       0.01504539 Eh      9.44 kcal/mol|
|  sn= 6 | S(rot)=       0.01487325 Eh      9.33 kcal/mol|
|  sn= 7 | S(rot)=       0.01472770 Eh      9.24 kcal/mol|
|  sn= 8 | S(rot)=       0.01460162 Eh      9.16 kcal/mol|
|  sn= 9 | S(rot)=       0.01449041 Eh      9.09 kcal/mol|
|  sn=10 | S(rot)=       0.01439093 Eh      9.03 kcal/mol|
|  sn=11 | S(rot)=       0.01430094 Eh      8.97 kcal/mol|
|  sn=12 | S(rot)=       0.01421879 Eh      8.92 kcal/mol|
 linear molecules ---------------------------------------
|  Dinfh | S(rot)=       0.01050768 Eh      6.59 kcal/mol|
|  Cinfv | S(rot)=       0.01116214 Eh      7.00 kcal/mol|
 --------------------------------------------------------


-------------------
GIBBS FREE ENERGY
-------------------

The Gibbs free energy is G = H - T*S

Total enthalpy                    ...  -1853.16902952 Eh 
Total entropy correction          ...     -0.07234321 Eh    -45.40 kcal/mol
-----------------------------------------------------------------------
Final Gibbs free energy         ...  -1853.24137273 Eh

For completeness - the Gibbs free energy minus the electronic energy
G-E(el)                           ...      0.04283403 Eh     26.88 kcal/mol


Maximum memory used throughout the entire PROP-calculation: 522.4 MB

--------------------------------
SUGGESTED CITATIONS FOR THIS RUN
--------------------------------

Below you find a list of papers that are relevant to this ORCA run
We neither can nor want to force you to cite these papers, but we appreciate if you do
You receive ORCA, which is the product of decades of hard work by many enthusiastic individuals, for free
The only thing we kindly ask in return is that you cite our papers,
We deeply appreciate it, if you show your appreciation for ORCA by not just citing the generic ORCA reference.

Please note that relegating all ORCA citations to the supporting information does *not* help us.
SI sections are not indexed - citations you put there will not count into any citation statistics
But we need these citations in order to attract the funding resources that allow us to do what we are doing

Therefore, if you are a happy ORCA user, please consider citing a few of the papers listed below in the main body of your paper

In addition to the list printed below, the program has created the file rf_mecn_freq_B3L_C4_D_B.bibtex that contains the list in bibtex format
You can import this file easily into all common literature databanks and citation aid programs


List of essential papers. We consider these as the minimum necessary citations

  1. Neese,F.
     Software update: the ORCA program system, version 5.0
     WIRES Comput. Molec. Sci., 2022 12(1)e1606
     doi.org/10.1002/wcms.1606

List of papers to cite with high priority. The work reported in these papers was absolutely
necessary for this run to complete.
Our perspective: the developers of density functionals and basis sets usually get cited in chemistry papers
Good! But without the algorithms to do something with them, the functionals or basis sets would not do anything.
Hence, in our opinion, the algorithm design and method developments papers are equally worthy of getting cited

  1. Neese,F.
     An improvement of the resolution of the identity approximation for the formation of the Coulomb matrix
     J. Comp. Chem., 2003 24(14)1740-1747
     doi.org/10.1002/jcc.10318
  2. Neese,F.; Wennmohs,F.; Hansen,A.; Becker,U.
     Efficient, approximate and parallel Hartree-Fock and hybrid DFT calculations. A 'chain-of-spheres' algorithm for the Hartree-Fock exchange
     Chem. Phys., 2009 356(1-3)98-109
     doi.org/10.1016/j.chemphys.2008.10.036
  3. Bykov,D.; Petrenko,T.; Izsak,R.; Kossmann,S.; Becker,U.; Valeev,E.; Neese,F.
     Efficient implementation of the analytic second derivatives of Hartree-Fock and hybrid DFT energies: a detailed analysis of different approximations
     Molec. Phys., 2015 113 1961-1977
     doi.org/10.1080/00268976.2015.1025114
  4. Garcia-Rates,M.; Neese,F.
     Efficient implementation of the analytical second derivatives of hartree-fock and hybrid DFT energies within the framework of the conductor-like polarizable continuum model
     J. Comput. Chem., 2019 40 1816-1828
     doi.org/10.1002/jcc.25833
  5. Garcia-Rates,M.; Neese,F.
     Effect of the Solute Cavity on the Solvation Energy and its Derivatives within the Framework of the Gaussian Charge Scheme
     J. Comput. Chem., 2020 41 922-939
     doi.org/10.1002/jcc.26139
  6. Helmich-Paris,B.; de Souza,B.; Neese,F.; Izsák,R.
     An improved chain of spheres for exchange algorithm
     J. Chem. Phys., 2021 155 104109
     doi.org/doi: 10.1063/5.0058766.
  7. Neese,F.
     The SHARK Integral Generation and Digestion System
     J. Comp. Chem., 2022  1-16
     doi.org/10.1002/jcc.26942
  8. Grimme,S.; Antony,J.; Ehrlich,S.; Krieg,H.
     A consistent and accurate ab initio parametrization of density functional dispersion correction (DFT-D) for the 94 elements H-Pu
     J. Chem. Phys., 2010 132 154104
     doi.org/10.1063/1.3382344
  9. Grimme,S.; Ehrlich,S.; Goerigk,L.
     Effect of the damping function in dispersion corrected density functional theory
     J. Comput. Chem., 2011 32(7)1456-1465
     doi.org/10.1002/jcc.21759

List of suggested additional citations. These are papers that are important in the 'surrounding' of 
of this run, or papers that preceded the highly important papers. If you like your results we are grateful for a citation.

  1. Izsak,R.; Neese,F.
     An overlap fitted chain of spheres exchange method
     J. Chem. Phys., 2011 135 144105
     doi.org/10.1063/1.3646921
  2. Izsak,R.; Hansen,A.; Neese,F.
     The resolution of identity and chain of spheres approximations for the LPNO-CCSD singles Fock term
     Molec. Phys., 2012 110 2413-2417
     doi.org/10.1080/00268976.2012.687466
  3. Neese,F.
     The ORCA program system
     WIRES Comput. Molec. Sci., 2012 2(1)73-78
     doi.org/10.1002/wcms.81
  4. Izsak,R.; Neese,F.; Klopper,W.
     Robust fitting techniques in the chain of spheres approximation to the Fock exchange: The role of the complementary space
     J. Chem. Phys., 2013 139 
     doi.org/10.1063/1.4819264
  5. Neese,F.
     Software update: the ORCA program system, version 4.0
     WIRES Comput. Molec. Sci., 2018 8(1)1-6
     doi.org/10.1002/wcms.1327
  6. Neese,F.; Wennmohs,F.; Becker,U.; Riplinger,C.
     The ORCA quantum chemistry program package
     J. Chem. Phys., 2020 152 Art. No. L224108
     doi.org/10.1063/5.0004608

List of optional additional citations

  1. Neese,F.
     Approximate second-order SCF convergence for spin unrestricted wavefunctions
     Chem. Phys. Lett., 2000 325(1-3)93-98
     doi.org/10.1016/s0009-2614(00)00662-x

Timings for individual modules:

Sum of individual times          ...     1090.211 sec (=  18.170 min)
Startup calculation              ...        4.073 sec (=   0.068 min)   0.4 %
SCF iterations                   ...       87.733 sec (=   1.462 min)   8.0 %
Property integrals               ...      239.692 sec (=   3.995 min)  22.0 %
SCF Response                     ...      508.160 sec (=   8.469 min)  46.6 %
Property calculations            ...      250.553 sec (=   4.176 min)  23.0 %
                             ****ORCA TERMINATED NORMALLY****
TOTAL RUN TIME: 0 days 0 hours 18 minutes 10 seconds 950 msec
