
                                 *****************
                                 * O   R   C   A *
                                 *****************

                                            #,                                       
                                            ###                                      
                                            ####                                     
                                            #####                                    
                                            ######                                   
                                           ########,                                 
                                     ,,################,,,,,                         
                               ,,#################################,,                 
                          ,,##########################################,,             
                       ,#########################################, ''#####,          
                    ,#############################################,,   '####,        
                  ,##################################################,,,,####,       
                ,###########''''           ''''###############################       
              ,#####''   ,,,,##########,,,,          '''####'''          '####       
            ,##' ,,,,###########################,,,                        '##       
           ' ,,###''''                  '''############,,,                           
         ,,##''                                '''############,,,,        ,,,,,,###''
      ,#''                                            '''#######################'''  
     '                                                          ''''####''''         
             ,#######,   #######,   ,#######,      ##                                
            ,#'     '#,  ##    ##  ,#'     '#,    #''#        ,####,   ,####,        
            ##       ##  ##   ,#'  ##            #'  '#       #'       #'  '#        
            ##       ##  #######   ##           ,######,      #####,   #    #        
            '#,     ,#'  ##    ##  '#,     ,#' ,#      #,     #,   #   #,  ,#        
             '#######'   ##     ##  '#######'  #'      '#     '####' # '####'        



                #########################################################
                #                        -***-                          #
                #          Department of theory and spectroscopy        #
                #                                                       #
                #                      Frank Neese                      #
                #                                                       #
                #     Directorship, Architecture, Infrastructure        #
                #                    SHARK, DRIVERS                     #
                #        Core code/Algorithms in most modules           #
                #                                                       #
                #        Max Planck Institute fuer Kohlenforschung      #
                #                Kaiser Wilhelm Platz 1                 #
                #                 D-45470 Muelheim/Ruhr                 #
                #                      Germany                          #
                #                                                       #
                #                  All rights reserved                  #
                #                        -***-                          #
                #########################################################


                         Program Version 6.0.1  -  RELEASE   -


 With contributions from (in alphabetic order):
[Max-Planck-Institut fuer Kohlenforschung]                               
  Daniel Aravena         : Magnetic Suceptibility                        
  Michael Atanasov       : Ab Initio Ligand Field Theory (pilot matlab implementation)
  Alexander A. Auer      : GIAO ZORA, VPT2 properties, NMR spectrum      
  Ute Becker             : All parallelization in ORCA, NUMFREQ, NUMCALC 
  Giovanni Bistoni       : ED, misc. LED, open-shell LED, HFLD           
  Martin Brehm           : Molecular dynamics                            
  Dmytro Bykov           : pre 5.0 version of the SCF Hessian            
  Marcos Casanova-Páez   : Triplet and SCS-CIS(D). UHF-(DLPNO)-IP/EA/STEOM-CCSD. UHF-CVS-IP/STEOM-CCSD   
  Vijay G. Chilkuri      : MRCI spin determinant printing, contributions to CSF-ICE 
  Pauline Colinet        : FMM embedding                                 
  Dipayan Datta          : RHF DLPNO-CCSD density                        
  Achintya Kumar Dutta   : EOM-CC, STEOM-CC                              
  Nicolas Foglia         : Exact transition moments, OPA infrastructure, MCD improvements    
  Dmitry Ganyushin       : Spin-Orbit,Spin-Spin,Magnetic field MRCI      
  Miquel Garcia-Rates    : C-PCM and meta-GGA Hessian, CCSD/C-PCM, Gaussian charge scheme 
  Tiago L. C. Gouveia    : GS-ROHF, GS-ROCIS                             
  Yang Guo               : DLPNO-NEVPT2, F12-NEVPT2, CIM, IAO-localization        
  Andreas Hansen         : Spin unrestricted coupled pair/coupled cluster methods 
  Ingolf Harden          : AUTO-CI MPn and infrastructure                
  Benjamin Helmich-Paris : MC-RPA, TRAH-(SCF,CASSCF), AVAS, COSX integrals, SCF dyn. polar. 
  Lee Huntington         : MR-EOM, pCC                                   
  Robert Izsak           : Overlap fitted RIJCOSX, COSX-SCS-MP3, EOM     
  Riya Kayal             : Wick's Theorem for AUTO-CI, AUTO-CI UHF-CCSDT 
  Emily Kempfer          : AUTO-CI, RHF CISDT and CCSDT                  
  Christian Kollmar      : KDIIS, OOCD, Brueckner-CCSD(T), CCSD density, CASPT2, CASPT2-K, improved NEVPT2 
  Axel Koslowski         : Symmetry handling                             
  Simone Kossmann        : meta-GGA functionals, TD-DFT gradient, OOMP2, (MP2 Hessian; deprecated post 5.0) 
  Lucas Lang             : DCDCAS                                        
  Marvin Lechner         : AUTO-CI (C++ implementation), FIC-MRCC        
  Spencer Leger          : CASSCF response                               
  Dagmar Lenk            : GEPOL surface, SMD, ORCA-2-JSON               
  Dimitrios Liakos       : Extrapolation schemes; Compound Job, initial MDCI parallelization 
  Dimitrios Manganas     : Further ROCIS development; embedding schemes. LFT, Crystal Embedding 
  Dimitrios Pantazis     : SARC Basis sets                               
  Anastasios Papadopoulos: AUTO-CI, single reference methods and gradients 
  Taras Petrenko         : pre 6.0 DFT Hessian and TD-DFT gradient, (ASA, deprecated), ECA, 1-Electron XAS/XES, NRVS 
  Peter Pinski           : DLPNO-MP2, DLPNO-MP2 Gradient                 
  Christoph Reimann      : Effective Core Potentials                     
  Marius Retegan         : Local ZFS, SOC                                
  Christoph Riplinger    : Optimizer, TS searches, QM/MM, DLPNO-CCSD(T), (RO)-DLPNO pert. Triples 
  Michael Roemelt        : Original ROCIS implementation                 
  Masaaki Saitow         : Open-shell DLPNO-CCSD energy and density      
  Barbara Sandhoefer     : DKH picture change effects                    
  Kantharuban Sivalingam : CASSCF convergence/infrastructure, NEVPT2 and variants, FIC-MRCI 
  Bernardo de Souza      : ESD, SOC TD-DFT                               
  Georgi L. Stoychev     : AutoAux, RI-MP2 NMR, DLPNO-MP2 response, X2C  
  Van Anh Tran           : RI-MP2 g-tensors                              
  Willem Van den Heuvel  : Paramagnetic NMR                              
  Zikuan Wang            : NOTCH, Electric field optimization            
  Frank Wennmohs         : Technical directorship and infrastructure     
  Hang Xu                : AUTO-CI-Response properties                   
                                                                         
[FACCTs GmbH]                                                            
  Markus Bursch, Miquel Garcia-Rates, Christoph Riplinger, Bernardo de Souza, Georgi L. Stoychev 
                                                                 
  APM, Basis sets (HGBS, AHGBS, def-TZVP (Ac-Lr), def2-XVPD (La-Lu)), CI-OPT, improved COSX, DLPNO-Multilevel,           
  DOCKER, DRACO, updates on ESD, GOAT, IRC, LR-CPCM, MBIS, meta-GGA TD-DFT gradient, ML-optimized integration grids, 
  MM, NACMEs, nearIR, NEB, NEB-TS, NL-DFT gradient (VV10), 2- and 3-layer-ONIOM, interface openCOSMO-RS, QMMM,   
  Crystal-QMMM, SF, symmetry and pop. for TD-DFT, r2SCAN hybrids, SOLVATOR                                   
                                                                         
[Other institutions]                                                     
  V. Asgeirsson          : NEB                                           
  Christoph Bannwarth    : sTDA-DFT, sTD-DFT, PBEh-3c, B97-3c, D3        
  Sebastian Ehlert       : rSCAN, r2SCAN, r2SCAN-3c, D4, dhf basis sets  
  Marvin Friede          : D4 for Fr, Ra, Ac-Lr                          
  Lars Goerigk           : TD-DFT with DH, B97 family of functionals     
  Stefan Grimme          : VdW corrections, initial TS optimization, DFT functionals, gCP, sTDA/sTD-DF 
  Waldemar Hujo          : DFT-NL                                        
  H. Jonsson             : NEB                                           
  Holger Kruse           : gCP                                           
  Marcel Mueller         : wB97X-3c, vDZP basis set                      
  Hagen Neugebauer       : wr2SCAN                                       
  Tobias Risthaus        : range-separated hybrid DFT                    
  Lukas Wittmann         : regularized MP2, r2SCAN double-hybrids, wr2SCAN        
                                                                         
We gratefully acknowledge several colleagues who have allowed us to      
interface, adapt or use parts of their codes:                            
  Ed Valeev, F. Pavosevic, A. Kumar             : LibInt (2-el integral package), F12 methods 
  Garnet Chan, S. Sharma, J. Yang, R. Olivares  : DMRG                   
  Ulf Ekstrom                                   : XCFun DFT Library      
  Mihaly Kallay                                 : mrcc  (arbitrary order and MRCC methods)
  Frank Weinhold                                : gennbo (NPA and NBO analysis)           
  Simon Mueller                                 : openCOSMO-RS                            
  Christopher J. Cramer and Donald G. Truhlar   : smd solvation model                     
  S Lehtola, MJT Oliveira, MAL Marques          : LibXC Library                           
  Liviu Ungur et al                             : ANISO software                          


 Your calculation uses the libint2 library for the computation of 2-el integrals
 For citations please refer to: http://libint.valeyev.net

 Your ORCA version has been built with support for libXC version: 6.2.2
 For citations please refer to: https://libxc.gitlab.io

 This ORCA versions uses:
   CBLAS   interface :  Fast vector & matrix operations
   LAPACKE interface :  Fast linear algebra routines
   SCALAPACK package :  Parallel linear algebra routines
   Shared memory     :  Shared parallel matrices
   BLAS/LAPACK       :  OpenBLAS 0.3.27  USE64BITINT DYNAMIC_ARCH NO_AFFINITY SkylakeX SINGLE_THREADED
        Core in use  :  SkylakeX
   Copyright (c) 2011-2014, The OpenBLAS Project


NOTE: MaxCore=8000 MB was set to SCF,MP2,MDCI,CIPSI,MRCI and CIS
      => If you want to overwrite this, your respective input block should be placed after the MaxCore statement
Your calculation utilizes the atom-pairwise dispersion correction
with the Becke-Johnson damping scheme (D3BJ)


Your calculation utilizes the SMD solvation module
Please cite in your paper:
A.V. Marenich, C.J. Cramer, D.G. Truhlar J. Phys. Chem. B, 113, (2009), 6378 

Warning: RI is on but no J-basis has been assigned. Assigning Def2/J (nothing to worry about!)
================================================================================

----- Orbital basis set information -----
Your calculation utilizes the basis: def2-TZVP
   F. Weigend and R. Ahlrichs, Phys. Chem. Chem. Phys. 7, 3297 (2005).

----- AuxJ basis set information -----
Your calculation utilizes the auxiliary basis: def2/J
   F. Weigend, Phys. Chem. Chem. Phys. 8, 1057 (2006).

================================================================================
                                        WARNINGS
                       Please study these warnings very carefully!
================================================================================


WARNING: your system is open-shell and RHF/RKS was chosen
  ===> : WILL SWITCH to UHF/UKS


================================================================================
                                       INPUT FILE
================================================================================
NAME = rf_mecn_freq_B3L_C8_D_B.inp
|  1> !B3LYP def2-TZVP freq d3 TightSCF SlowConv defgrid2
|  2>  
|  3> %pal
|  4> nprocs 20
|  5> end
|  6>  
|  7> %scf
|  8> MaxIter 1500
|  9> end
| 10>  
| 11> %maxcore 8000
| 12>  
| 13> !CPCM
| 14> %cpcm smd true
| 15> SMDsolvent "ACETONITRILE"
| 16> end
| 17>  
| 18> * xyz -1 2
| 19> 6        4.831103000      0.082418000     -0.353835000
| 20> 8        5.387568000     -0.754175000     -1.076174000
| 21> 8        5.116646000      1.257725000     -0.075048000
| 22> 6        3.505186000     -0.415857000      0.355943000
| 23> 6        2.234401000      0.299985000     -0.182790000
| 24> 6        0.880673000     -0.417191000      0.146481000
| 25> 6       -0.379244000      0.505996000     -0.010478000
| 26> 6       -1.727429000     -0.289610000     -0.093974000
| 27> 6       -3.002104000      0.563119000      0.201540000
| 28> 6       -4.275570000     -0.190668000     -0.154341000
| 29> 9        3.311931000     -1.758271000      0.196636000
| 30> 9        3.574748000     -0.192309000      1.704103000
| 31> 9        2.174783000      1.554641000      0.317756000
| 32> 9        2.333778000      0.385122000     -1.532829000
| 33> 9        0.735963000     -1.481740000     -0.671743000
| 34> 9        0.914694000     -0.857782000      1.421403000
| 35> 9       -0.431973000      1.342536000      1.045446000
| 36> 9       -0.257194000      1.240175000     -1.135332000
| 37> 9       -1.707197000     -1.302382000      0.797638000
| 38> 9       -1.840790000     -0.808575000     -1.334688000
| 39> 9       -2.921911000      1.731171000     -0.497499000
| 40> 9       -3.041560000      0.857590000      1.514841000
| 41> 9       -5.339196000      0.157924000      0.546281000
| 42> 9       -4.542782000     -0.271907000     -1.444923000
| 43> *
| 44> 
| 45>                          ****END OF INPUT****
================================================================================

                       ****************************
                       * Single Point Calculation *
                       ****************************

---------------------------------
CARTESIAN COORDINATES (ANGSTROEM)
---------------------------------
  C      4.831103    0.082418   -0.353835
  O      5.387568   -0.754175   -1.076174
  O      5.116646    1.257725   -0.075048
  C      3.505186   -0.415857    0.355943
  C      2.234401    0.299985   -0.182790
  C      0.880673   -0.417191    0.146481
  C     -0.379244    0.505996   -0.010478
  C     -1.727429   -0.289610   -0.093974
  C     -3.002104    0.563119    0.201540
  C     -4.275570   -0.190668   -0.154341
  F      3.311931   -1.758271    0.196636
  F      3.574748   -0.192309    1.704103
  F      2.174783    1.554641    0.317756
  F      2.333778    0.385122   -1.532829
  F      0.735963   -1.481740   -0.671743
  F      0.914694   -0.857782    1.421403
  F     -0.431973    1.342536    1.045446
  F     -0.257194    1.240175   -1.135332
  F     -1.707197   -1.302382    0.797638
  F     -1.840790   -0.808575   -1.334688
  F     -2.921911    1.731171   -0.497499
  F     -3.041560    0.857590    1.514841
  F     -5.339196    0.157924    0.546281
  F     -4.542782   -0.271907   -1.444923

----------------------------
CARTESIAN COORDINATES (A.U.)
----------------------------
  NO LB      ZA    FRAG     MASS         X           Y           Z
   0 C     6.0000    0    12.011    9.129462    0.155747   -0.668651
   1 O     8.0000    0    15.999   10.181028   -1.425184   -2.033674
   2 O     8.0000    0    15.999    9.669060    2.376756   -0.141820
   3 C     6.0000    0    12.011    6.623842   -0.785856    0.672635
   4 C     6.0000    0    12.011    4.222406    0.566889   -0.345423
   5 C     6.0000    0    12.011    1.664231   -0.788377    0.276809
   6 C     6.0000    0    12.011   -0.716667    0.956194   -0.019801
   7 C     6.0000    0    12.011   -3.264368   -0.547284   -0.177585
   8 C     6.0000    0    12.011   -5.673154    1.064141    0.380855
   9 C     6.0000    0    12.011   -8.079656   -0.360310   -0.291662
  10 F     9.0000    0    18.998    6.258643   -3.322651    0.371588
  11 F     9.0000    0    18.998    6.755295   -0.363411    3.220288
  12 F     9.0000    0    18.998    4.109744    2.937846    0.600472
  13 F     9.0000    0    18.998    4.410201    0.727775   -2.896627
  14 F     9.0000    0    18.998    1.390769   -2.800083   -1.269410
  15 F     9.0000    0    18.998    1.728521   -1.620973    2.686062
  16 F     9.0000    0    18.998   -0.816311    2.537025    1.975607
  17 F     9.0000    0    18.998   -0.486026    2.343591   -2.145467
  18 F     9.0000    0    18.998   -3.226135   -2.461145    1.507317
  19 F     9.0000    0    18.998   -3.478589   -1.527985   -2.522195
  20 F     9.0000    0    18.998   -5.521612    3.271439   -0.940137
  21 F     9.0000    0    18.998   -5.747715    1.620610    2.862635
  22 F     9.0000    0    18.998  -10.089618    0.298433    1.032321
  23 F     9.0000    0    18.998   -8.584614   -0.513830   -2.730509

--------------------------------
INTERNAL COORDINATES (ANGSTROEM)
--------------------------------
 C      0   0   0     0.000000000000     0.00000000     0.00000000
 O      1   0   0     1.237463039769     0.00000000     0.00000000
 O      1   2   0     1.241210514162   131.89893784     0.00000000
 C      1   2   3     1.584335405083   115.16476770   179.90969525
 C      4   1   2     1.554849680991   112.58020010   247.98605634
 C      5   4   1     1.566952553334   114.99653670   162.66362460
 C      6   5   4     1.569809291455   113.77881751   162.49319992
 C      7   6   5     1.567661724824   113.39645853   163.18363173
 C      8   7   6     1.561816771347   114.50133931   161.61857992
 C      9   8   7     1.522025551916   111.60604887   169.06145397
 F      4   1   2     1.365577373374   112.04528569     8.97299963
 F      4   1   2     1.368337665106   110.33237232   127.35572427
 F      5   4   1     1.352132494387   109.57094543   284.49154313
 F      5   4   1     1.356366247891   108.29357266    42.39010085
 F      6   5   4     1.350442916852   109.02924864   283.71830188
 F      6   5   4     1.349334637444   109.03892745    42.05331171
 F      7   6   5     1.348167279241   108.54133124   284.26864501
 F      7   6   5     1.348781497448   109.32178189    42.57077259
 F      8   7   6     1.349477089969   109.43877564    41.15832863
 F      8   7   6     1.349646849121   108.44198447   282.76830589
 F      9   8   7     1.363609883902   108.82569039    46.59503940
 F      9   8   7     1.346487824816   109.13944288   288.56599513
 F     10   9   8     1.320487727025   114.78014913   152.32817733
 F     10   9   8     1.320455954127   115.36074449   284.55108988

---------------------------
INTERNAL COORDINATES (A.U.)
---------------------------
 C      0   0   0     0.000000000000     0.00000000     0.00000000
 O      1   0   0     2.338466246014     0.00000000     0.00000000
 O      1   2   0     2.345547946310   131.89893784     0.00000000
 C      1   2   3     2.993960019881   115.16476770   179.90969525
 C      4   1   2     2.938240076488   112.58020010   247.98605634
 C      5   4   1     2.961111190651   114.99653670   162.66362460
 C      6   5   4     2.966509643335   113.77881751   162.49319992
 C      7   6   5     2.962451330547   113.39645853   163.18363173
 C      8   7   6     2.951405969212   114.50133931   161.61857992
 C      9   8   7     2.876211461952   111.60604887   169.06145397
 F      4   1   2     2.580567250356   112.04528569     8.97299963
 F      4   1   2     2.585783445780   110.33237232   127.35572427
 F      5   4   1     2.555160111166   109.57094543   284.49154313
 F      5   4   1     2.563160745809   108.29357266    42.39010085
 F      6   5   4     2.551967272345   109.02924864   283.71830188
 F      6   5   4     2.549872927783   109.03892745    42.05331171
 F      7   6   5     2.547666940480   108.54133124   284.26864501
 F      7   6   5     2.548827644676   109.32178189    42.57077259
 F      8   7   6     2.550142124043   109.43877564    41.15832863
 F      8   7   6     2.550462922348   108.44198447   282.76830589
 F      9   8   7     2.576849234082   108.82569039    46.59503940
 F      9   8   7     2.544493231562   109.13944288   288.56599513
 F     10   9   8     2.495360167282   114.78014913   152.32817733
 F     10   9   8     2.495300125205   115.36074449   284.55108988

---------------------
BASIS SET INFORMATION
---------------------
There are 3 groups of distinct atoms

 Group   1 Type C   : 11s6p2d1f contracted to 5s3p2d1f pattern {62111/411/11/1}
 Group   2 Type O   : 11s6p2d1f contracted to 5s3p2d1f pattern {62111/411/11/1}
 Group   3 Type F   : 11s6p2d1f contracted to 5s3p2d1f pattern {62111/411/11/1}

Atom   0C    basis set group =>   1
Atom   1O    basis set group =>   2
Atom   2O    basis set group =>   2
Atom   3C    basis set group =>   1
Atom   4C    basis set group =>   1
Atom   5C    basis set group =>   1
Atom   6C    basis set group =>   1
Atom   7C    basis set group =>   1
Atom   8C    basis set group =>   1
Atom   9C    basis set group =>   1
Atom  10F    basis set group =>   3
Atom  11F    basis set group =>   3
Atom  12F    basis set group =>   3
Atom  13F    basis set group =>   3
Atom  14F    basis set group =>   3
Atom  15F    basis set group =>   3
Atom  16F    basis set group =>   3
Atom  17F    basis set group =>   3
Atom  18F    basis set group =>   3
Atom  19F    basis set group =>   3
Atom  20F    basis set group =>   3
Atom  21F    basis set group =>   3
Atom  22F    basis set group =>   3
Atom  23F    basis set group =>   3
---------------------------------
AUXILIARY/J BASIS SET INFORMATION
---------------------------------
There are 3 groups of distinct atoms

 Group   1 Type C   : 12s5p4d2f1g contracted to 6s4p3d1f1g pattern {711111/2111/211/2/1}
 Group   2 Type O   : 12s5p4d2f1g contracted to 6s4p3d1f1g pattern {711111/2111/211/2/1}
 Group   3 Type F   : 12s5p4d2f1g contracted to 6s4p3d1f1g pattern {711111/2111/211/2/1}

Atom   0C    basis set group =>   1
Atom   1O    basis set group =>   2
Atom   2O    basis set group =>   2
Atom   3C    basis set group =>   1
Atom   4C    basis set group =>   1
Atom   5C    basis set group =>   1
Atom   6C    basis set group =>   1
Atom   7C    basis set group =>   1
Atom   8C    basis set group =>   1
Atom   9C    basis set group =>   1
Atom  10F    basis set group =>   3
Atom  11F    basis set group =>   3
Atom  12F    basis set group =>   3
Atom  13F    basis set group =>   3
Atom  14F    basis set group =>   3
Atom  15F    basis set group =>   3
Atom  16F    basis set group =>   3
Atom  17F    basis set group =>   3
Atom  18F    basis set group =>   3
Atom  19F    basis set group =>   3
Atom  20F    basis set group =>   3
Atom  21F    basis set group =>   3
Atom  22F    basis set group =>   3
Atom  23F    basis set group =>   3


           ************************************************************
           *        Program running with 20 parallel MPI-processes    *
           *              working on a common directory               *
           ************************************************************
------------------------------------------------------------------------------
                             ORCA STARTUP CALCULATIONS
                           -- RI-GTO INTEGRALS CHOSEN --
------------------------------------------------------------------------------
------------------------------------------------------------------------------
                   ___                                                        
                  /   \      - P O W E R E D   B Y -                         
                 /     \                                                     
                 |  |  |   _    _      __       _____    __    __             
                 |  |  |  | |  | |    /  \     |  _  \  |  |  /  |          
                  \  \/   | |  | |   /    \    | | | |  |  | /  /          
                 / \  \   | |__| |  /  /\  \   | |_| |  |  |/  /          
                |  |  |   |  __  | /  /__\  \  |    /   |      \           
                |  |  |   | |  | | |   __   |  |    \   |  |\   \          
                \     /   | |  | | |  |  |  |  | |\  \  |  | \   \       
                 \___/    |_|  |_| |__|  |__|  |_| \__\ |__|  \__/        
                                                                              
                      - O R C A' S   B I G   F R I E N D -                    
                                      &                                       
                       - I N T E G R A L  F E E D E R -                       
                                                                              
 v1 FN, 2020, v2 2021, v3 2022-2024                                           
------------------------------------------------------------------------------


----------------------
SHARK INTEGRAL PACKAGE
----------------------

Number of atoms                             ...     24
Number of basis functions                   ...    744
Number of shells                            ...    264
Maximum angular momentum                    ...      3
Integral batch strategy                     ... SHARK/LIBINT Hybrid
RI-J (if used) integral strategy            ... SPLIT-RIJ (Revised 2003 algorithm where possible)
Printlevel                                  ...      1
Contraction scheme used                     ... SEGMENTED contraction
Prescreening option                         ... SCHWARTZ
   Thresh                                   ... 2.500e-11
   Tcut                                     ... 2.500e-12
   Tpresel                                  ... 2.500e-12 
Coulomb Range Separation                    ... NOT USED
Exchange Range Separation                   ... NOT USED
Multipole approximations                    ... NOT USED
Finite Nucleus Model                        ... NOT USED
CABS basis                                  ... NOT available
Auxiliary Coulomb fitting basis             ... AVAILABLE
   # of basis functions in Aux-J            ...   1176
   # of shells in Aux-J                     ...    360
   Maximum angular momentum in Aux-J        ...      4
Auxiliary J/K fitting basis                 ... NOT available
Auxiliary Correlation fitting basis         ... NOT available
Auxiliary 'external' fitting basis          ... NOT available

Checking pre-screening integrals            ... done (  0.0 sec) Dimension = 264
Check shell pair data                       ... done (  0.0 sec)
Shell pair information
Shell pair cut-off parameter TPreSel        ...   2.5e-12
Total number of shell pairs                 ...     34980
Shell pairs after pre-screening             ...     22009
Total number of primitive shell pairs       ...    115968
Primitive shell pairs kept                  ...     46854
          la=0 lb=0:   4106 shell pairs
          la=1 lb=0:   5976 shell pairs
          la=1 lb=1:   2095 shell pairs
          la=2 lb=0:   3276 shell pairs
          la=2 lb=1:   2428 shell pairs
          la=2 lb=2:    687 shell pairs
          la=3 lb=0:   1488 shell pairs
          la=3 lb=1:   1169 shell pairs
          la=3 lb=2:    633 shell pairs
          la=3 lb=3:    151 shell pairs

Calculating one electron integrals          ... done (  0.0 sec)
Calculating RI/J V-Matrix + Cholesky decomp.... done (  0.1 sec)
Calculating Nuclear repulsion               ... done (  0.0 sec) ENN=   2648.059029487623 Eh

Diagonalization of the overlap matrix:
Smallest eigenvalue                        ... 6.224e-05
Time for diagonalization                   ...    0.122 sec
Threshold for overlap eigenvalues          ... 1.000e-07
Number of eigenvalues below threshold      ... 0
Time for construction of square roots      ...    0.061 sec
Total time needed                          ...    0.189 sec

-------------------
DFT GRID GENERATION
-------------------

General Integration Accuracy     IntAcc      ... 4.388
Radial Grid Type                 RadialGrid  ... OptM3 with GC (2021)
Angular Grid (max. ang.)         AngularGrid ... 4 (Lebedev-302)
Angular grid pruning method      GridPruning ... 4 (adaptive)
Weight generation scheme         WeightScheme... mBecke (2022)
Basis function cutoff            BFCut       ... 1.0000e-11
Integration weight cutoff        WCut        ... 1.0000e-14
Partially contracted basis set               ... off
Rotationally invariant grid construction     ... off
Angular grids for H and He will be reduced by one unit

Total number of grid points                  ...   145439
Total number of batches                      ...     2286
Average number of points per batch           ...       63
Average number of grid points per atom       ...     6060

--------------------
COSX GRID GENERATION
--------------------

GRIDX 1
-------
General Integration Accuracy     IntAcc      ... 3.816
Radial Grid Type                 RadialGrid  ... OptM3 with GC (2021)
Angular Grid (max. ang.)         AngularGrid ... 1 (Lebedev-50)
Angular grid pruning method      GridPruning ... 4 (adaptive)
Weight generation scheme         WeightScheme... mBecke (2022)
Basis function cutoff            BFCut       ... 1.0000e-11
Integration weight cutoff        WCut        ... 1.0000e-14
Partially contracted basis set               ... on
Rotationally invariant grid construction     ... off
Angular grids for H and He will be reduced by one unit

Total number of grid points                  ...    18274
Total number of batches                      ...      153
Average number of points per batch           ...      119
Average number of grid points per atom       ...      761
UseSFitting                                  ... on

GRIDX 2
-------
General Integration Accuracy     IntAcc      ... 4.020
Radial Grid Type                 RadialGrid  ... OptM3 with GC (2021)
Angular Grid (max. ang.)         AngularGrid ... 2 (Lebedev-110)
Angular grid pruning method      GridPruning ... 4 (adaptive)
Weight generation scheme         WeightScheme... mBecke (2022)
Basis function cutoff            BFCut       ... 1.0000e-11
Integration weight cutoff        WCut        ... 1.0000e-14
Partially contracted basis set               ... on
Rotationally invariant grid construction     ... off
Angular grids for H and He will be reduced by one unit

Total number of grid points                  ...    43314
Total number of batches                      ...      351
Average number of points per batch           ...      123
Average number of grid points per atom       ...     1805
UseSFitting                                  ... on

GRIDX 3
-------
General Integration Accuracy     IntAcc      ... 4.338
Radial Grid Type                 RadialGrid  ... OptM3 with GC (2021)
Angular Grid (max. ang.)         AngularGrid ... 3 (Lebedev-194)
Angular grid pruning method      GridPruning ... 4 (adaptive)
Weight generation scheme         WeightScheme... mBecke (2022)
Basis function cutoff            BFCut       ... 1.0000e-11
Integration weight cutoff        WCut        ... 1.0000e-14
Partially contracted basis set               ... on
Rotationally invariant grid construction     ... off
Angular grids for H and He will be reduced by one unit

Total number of grid points                  ...    95982
Total number of batches                      ...      761
Average number of points per batch           ...      126
Average number of grid points per atom       ...     3999
UseSFitting                                  ... on
Initializing property integral containers    ... done (  0.0 sec)

SHARK setup successfully completed in   3.6 seconds

Maximum memory used throughout the entire STARTUP-calculation: 57.1 MB


           ************************************************************
           *        Program running with 20 parallel MPI-processes    *
           *              working on a common directory               *
           ************************************************************
-------------------------------------------------------------------------------
                                 ORCA GUESS
                   Start orbitals & Density for SCF / CASSCF
-------------------------------------------------------------------------------

------------
SCF SETTINGS
------------
Hamiltonian:
 Density Functional     Method          .... DFT(GTOs)
 Exchange Functional    Exchange        .... B88
   X-Alpha parameter    XAlpha          ....  0.666667
   Becke's b parameter  XBeta           ....  0.004200
 Correlation Functional Correlation     .... LYP
 LDA part of GGA corr.  LDAOpt          .... VWN-5
 Gradients option       PostSCFGGA      .... off
 Hybrid DFT is turned on
   Fraction HF Exchange ScalHFX         ....  0.200000
   Scaling of DF-GGA-X  ScalDFX         ....  0.720000
   Scaling of DF-GGA-C  ScalDFC         ....  0.810000
   Scaling of DF-LDA-C  ScalLDAC        ....  1.000000
   Perturbative correction              ....  0.000000
   NL short-range parameter             ....  4.800000
 RI-approximation to the Coulomb term is turned on
   Number of AuxJ basis functions       .... 1176
   RIJ-COSX (HFX calculated with COS-X)).... on


General Settings:
 Integral files         IntName         .... rf_mecn_freq_B3L_C8_D_B
 Hartree-Fock type      HFTyp           .... UHF
 Total Charge           Charge          ....   -1
 Multiplicity           Mult            ....    2
 Number of Electrons    NEL             ....  191
 Basis Dimension        Dim             ....  744
 Nuclear Repulsion      ENuc            ....   2648.0590294876 Eh

Convergence Acceleration:
 AO-DIIS                CNVDIIS         .... on
   Start iteration      DIISMaxIt       ....     0
   Startup error        DIISStart       ....  0.200000
   # of expansion vecs  DIISMaxEq       ....     5
   Bias factor          DIISBfac        ....   1.050
   Max. coefficient     DIISMaxC        ....  10.000
 MO-DIIS                CNVKDIIS        .... off
 Trust-Rad. Augm. Hess. CNVTRAH         .... auto
   Auto Start mean grad. ratio tolernc. ....  1.125000
   Auto Start start iteration           ....    50
   Auto Start num. interpolation iter.  ....    10
   Max. Number of Micro iterations      ....    24
   Max. Number of Macro iterations      .... Maxiter - #DIIS iter
   Number of Davidson start vectors     ....     2
   Converg. threshold    (grad. norm)   ....   1.000e-05
   Grad. Scal. Fac. for Micro threshold ....   0.100
   Minimum threshold for Micro iter.    ....   1.000e-02
   NR start threshold (gradient norm)   ....   1.000e-04
   Initial trust radius                 ....   0.400
   Minimum AH scaling param. (alpha)    ....   1.000
   Maximum AH scaling param. (alpha)    .... 1000.000
   Quad. conv. algorithm                .... NR
   White noise on init. David. guess    .... on
   Maximum white noise                  ....   0.010
   Pseudo random numbers                .... off
   Inactive MOs                         .... canonical
   Orbital update algorithm             .... Taylor
   Preconditioner                       .... Diag
   Full preconditioner red. dimension   ....   250
 SOSCF                  CNVSOSCF        .... on
   Start iteration      SOSCFMaxIt      ....   150
   Startup grad/error   SOSCFStart      ....  0.001000
   Hessian update       SOSCFHessUp     .... L-BFGS
 Level Shifting         CNVShift        .... on
   Level shift para.    LevelShift      ....    0.2500
   Turn off err/grad.   ShiftErr        ....    0.0000
 Zerner damping         CNVZerner       .... off
 Static damping         CNVDamp         .... on
   Fraction old density DampFac         ....    0.8500
   Max. Damping (<1)    DampMax         ....    0.9800
   Min. Damping (>=0)   DampMin         ....    0.0000
   Turn off err/grad.   DampErr         ....    0.0300

SCF Procedure:
 Maximum # iterations   MaxIter         ....  1500
 SCF integral mode      SCFMode         .... Direct
   Integral package                     .... SHARK and LIBINT hybrid scheme
 Reset frequency        DirectResetFreq ....    20
 Integral Threshold     Thresh          ....  2.500e-11 Eh
 Primitive CutOff       TCut            ....  2.500e-12 Eh

Convergence Tolerance:
 Convergence Check Mode ConvCheckMode   .... Total+1el-Energy
 Convergence forced     ConvForced      .... 0
 Energy Change          TolE            ....  1.000e-08 Eh
 1-El. energy change                    ....  1.000e-05 Eh
 Orbital Gradient       TolG            ....  1.000e-05
 Orbital Rotation angle TolX            ....  1.000e-05
 DIIS Error             TolErr          ....  5.000e-07

------------------------------
INITIAL GUESS: MODEL POTENTIAL
------------------------------
Loading Hartree-Fock densities                     ... done
Calculating cut-offs                               ... done
Initializing the effective Hamiltonian             ... done
Setting up the integral package (SHARK)            ... done
Starting the Coulomb interaction                   ... done (   0.2 sec)
Making the grid                                    ... done (   0.4 sec)
Mapping shells                                     ... done
Starting the XC term evaluation                    ... done (   0.2 sec)
  promolecular density results
     # of electrons  =    189.999349949
     EX              =   -198.251848343
     EC              =     -7.145791498
     EX+EC           =   -205.397639842
Transforming the Hamiltonian                       ... done (   0.1 sec)
Diagonalizing the Hamiltonian                      ... done (   0.1 sec)
Back transforming the eigenvectors                 ... done (   0.0 sec)
Now organizing SCF variables                       ... done
                      ------------------
                      INITIAL GUESS DONE (   1.1 sec)
                      ------------------
             **** ENERGY FILE WAS UPDATED (rf_mecn_freq_B3L_C8_D_B.en.tmp) ****
Finished Guess after   2.0 sec
Maximum memory used throughout the entire GUESS-calculation: 45.9 MB


           ************************************************************
           *        Program running with 20 parallel MPI-processes    *
           *              working on a common directory               *
           ************************************************************

-------------------------------------------------------------------------------------------
                                      ORCA LEAN-SCF
                              memory conserving SCF solver
-------------------------------------------------------------------------------------------

--------------------
CPCM SOLVATION MODEL
--------------------
CPCM parameters:
  Epsilon                                         ...      35.6880
  Refrac                                          ...       1.3442
  Rsolv                                           ...       1.3000
  Surface type                                    ... GAUSSIAN VDW
  Discretization scheme                           ... Constant charge density
    Threshold for H atoms                         ...       5.0000 (charges/Ang^2)
    Threshold for non-H atoms                     ...       5.0000 (charges/Ang^2)
  Epsilon function type                           ...         CPCM
Solvent:                                          ... ACETONITRILE
SMD-CDS solvent descriptors:
  Soln                                            ...       1.3442
  Soln25                                          ...       1.3416
  Sola                                            ...       0.0700
  Solb                                            ...       0.3200
  Solg                                            ...      41.2500
  Solc                                            ...       0.0000
  Solh                                            ...       0.0000
Radii:
  Scheme                                          ... Element-dependent radii
  Radius for C  used is    3.4960 Bohr (=   1.8500 Ang.)
  Radius for O  used is    4.0969 Bohr (=   2.1680 Ang.)
  Radius for F  used is    3.2692 Bohr (=   1.7300 Ang.)
Calculating surface                               ...        done! (  0.0s)
Cavity surface points                             ...         2089
Cavity Volume                                     ...    2104.4962
Cavity Surface-area                               ...    1094.9740
Calculating surface distance matrix               ...        done! (  0.0s)
Performing Cholesky decomposition & store         ...        done! (  0.1s)
Overall time for CPCM initialization              ...                 0.1s

----------------------------------------D-I-I-S--------------------------------------------
Iteration    Energy (Eh)           Delta-E    RMSDP     MaxDP     DIISErr   Damp  Time(sec)
-------------------------------------------------------------------------------------------
               ***  Starting incremental Fock matrix formation  ***
    1    -1852.7009238783689398     0.00e+00  2.79e-04  3.74e-02  1.68e-01  0.850   7.1
Warning: op=0 Small HOMO/LUMO gap (   0.052) - skipping pre-diagonalization
         Will do a full diagonalization
    2    -1852.8635313923518879    -1.63e-01  3.76e-04  7.68e-02  1.17e-01  0.850   4.7
                               ***Turning on AO-DIIS***
    3    -1852.9518698632141422    -8.83e-02  1.97e-04  3.85e-02  7.12e-02  0.850   4.2
    4    -1853.0050697949341156    -5.32e-02  1.06e-04  1.68e-02  5.35e-02  0.850   3.9
    5    -1853.0430216829649908    -3.80e-02  6.30e-05  7.41e-03  4.41e-02  0.850   3.2
    6    -1853.0730961320855386    -3.01e-02  4.50e-05  7.05e-03  3.78e-02  0.850   3.2
    7    -1853.0980860008717173    -2.50e-02  3.80e-05  6.70e-03  3.25e-02  0.850   3.1
    8    -1853.1191790865591429    -2.11e-02  3.36e-05  6.10e-03  2.74e-02  0.850   3.2
    9    -1853.1367802720192230    -1.76e-02  1.94e-04  3.56e-02  2.28e-02  0.000   3.0
   10    -1853.2290955414259770    -9.23e-02  1.70e-05  2.75e-03  2.96e-03  0.000   3.5
                              *** Initializing SOSCF ***
---------------------------------------S-O-S-C-F--------------------------------------
Iteration    Energy (Eh)           Delta-E    RMSDP     MaxDP     MaxGrad    Time(sec)
--------------------------------------------------------------------------------------
   11    -1853.2292252103156898    -1.30e-04  9.36e-06  1.57e-03  4.53e-04     3.4
               *** Restarting incremental Fock matrix formation ***
   12    -1853.2292233011753524     1.91e-06  5.26e-06  9.22e-04  3.38e-04     5.7
   13    -1853.2292225000569488     8.01e-07  3.90e-06  3.95e-04  3.64e-04     3.8
   14    -1853.2292258861930350    -3.39e-06  1.60e-06  1.32e-04  5.43e-05     3.5
   15    -1853.2292257527919901     1.33e-07  8.48e-07  1.13e-04  5.50e-05     3.4
   16    -1853.2292260338585947    -2.81e-07  5.61e-07  8.51e-05  8.43e-06     3.1
   17    -1853.2292260505832928    -1.67e-08  2.79e-07  4.07e-05  1.21e-05     3.0
   18    -1853.2292260544359124    -3.85e-09  1.17e-07  1.17e-05  2.21e-06     2.9
                 **** Energy Check signals convergence ****

               *****************************************************
               *                     SUCCESS                       *
               *           SCF CONVERGED AFTER  18 CYCLES          *
               *****************************************************

Recomputing exchange energy using gridx3       ... done (    7.239 sec)
Old exchange energy                            :    -39.798392622 Eh
New exchange energy                            :    -39.798418192 Eh
Exchange energy change after final integration :     -0.000025570 Eh
Total energy after final integration           :  -1853.229251624 Eh

SMD CDS free energy correction energy :                 3.47859     Kcal/mol
Total Energy after SMD CDS correction =             -1853.223708138 Eh
             **** ENERGY FILE WAS UPDATED (rf_mecn_freq_B3L_C8_D_B.en.tmp) ****

----------------
TOTAL SCF ENERGY
----------------

Total Energy       :      -1853.22370813767134 Eh          -50428.78085 eV

Components:
Nuclear Repulsion  :       2648.05902948762332 Eh           72057.34952 eV
Electronic Energy  :      -4501.20378168739262 Eh         -122483.98187 eV
One Electron Energy:      -7870.88336610439728 Eh         -214177.62497 eV
Two Electron Energy:       3369.67958441700421 Eh           91693.64311 eV
CPCM Dielectric    :         -0.08447385466544 Eh              -2.29865 eV
SMD CDS (Gcds)     :          0.00554348678170 Eh               0.15085 eV

Virial components:
Potential Energy   :      -3700.19040597956609 Eh         -100687.29979 eV
Kinetic Energy     :       1846.96669784189453 Eh           50258.51894 eV
Virial Ratio       :          2.00338772231415

DFT components:
N(Alpha)           :       96.000007948439 electrons
N(Beta)            :       94.999991532080 electrons
N(Total)           :      190.999999480519 electrons
E(X)               :     -158.610973891988 Eh       
E(C)               :       -8.380359933284 Eh       
E(XC)              :     -166.991333825272 Eh       

CPCM Solvation Model Properties:
Surface-charge          :          0.98922398800135
Corrected charge        :          1.00000000000000
Outlying charge corr.   :          0.00000638886154 Eh               0.00017 eV
Free-energy (cav+disp)  :          0.00554348678170 Eh               0.15085 eV

---------------
SCF CONVERGENCE
---------------

  Last Energy change         ...    3.8526e-09  Tolerance :   1.0000e-08
  Last MAX-Density change    ...    1.1689e-05  Tolerance :   1.0000e-07
  Last RMS-Density change    ...    1.1701e-07  Tolerance :   5.0000e-09
  Last DIIS Error            ...    4.5349e-04  Tolerance :   5.0000e-07
  Last Orbital Gradient      ...    2.2050e-06  Tolerance :   1.0000e-05
  Last Orbital Rotation      ...    3.9055e-06  Tolerance :   1.0000e-05


----------------------
UHF SPIN CONTAMINATION
----------------------

Warning: in a DFT calculation there is little theoretical justification to 
         calculate <S**2> as in Hartree-Fock theory. We will do it anyways
         but you should keep in mind that the values have only limited relevance

Expectation value of <S**2>     :     0.752658
Ideal value S*(S+1) for S=0.5   :     0.750000
Deviation                       :     0.002658

----------------
ORBITAL ENERGIES
----------------
                 SPIN UP ORBITALS
  NO   OCC          E(Eh)            E(eV) 
   0   1.0000     -24.747009      -673.4004 
   1   1.0000     -24.746818      -673.3951 
   2   1.0000     -24.740172      -673.2143 
   3   1.0000     -24.739541      -673.1971 
   4   1.0000     -24.738429      -673.1669 
   5   1.0000     -24.738360      -673.1650 
   6   1.0000     -24.736813      -673.1229 
   7   1.0000     -24.734023      -673.0470 
   8   1.0000     -24.733892      -673.0434 
   9   1.0000     -24.733248      -673.0259 
  10   1.0000     -24.722865      -672.7434 
  11   1.0000     -24.722857      -672.7431 
  12   1.0000     -24.697928      -672.0648 
  13   1.0000     -24.697919      -672.0645 
  14   1.0000     -19.061373      -518.6863 
  15   1.0000     -19.059677      -518.6402 
  16   1.0000     -10.402671      -283.0711 
  17   1.0000     -10.402339      -283.0620 
  18   1.0000     -10.401749      -283.0460 
  19   1.0000     -10.396276      -282.8970 
  20   1.0000     -10.381172      -282.4860 
  21   1.0000     -10.375477      -282.3311 
  22   1.0000     -10.343081      -281.4496 
  23   1.0000     -10.254224      -279.0316 
  24   1.0000      -1.329871       -36.1876 
  25   1.0000      -1.321276       -35.9538 
  26   1.0000      -1.309828       -35.6422 
  27   1.0000      -1.301832       -35.4246 
  28   1.0000      -1.298429       -35.3321 
  29   1.0000      -1.290880       -35.1266 
  30   1.0000      -1.262884       -34.3648 
  31   1.0000      -1.262363       -34.3506 
  32   1.0000      -1.258610       -34.2485 
  33   1.0000      -1.250073       -34.0162 
  34   1.0000      -1.244175       -33.8557 
  35   1.0000      -1.243164       -33.8282 
  36   1.0000      -1.233336       -33.5608 
  37   1.0000      -1.204717       -32.7820 
  38   1.0000      -1.024592       -27.8806 
  39   1.0000      -0.942117       -25.6363 
  40   1.0000      -0.844443       -22.9785 
  41   1.0000      -0.823946       -22.4207 
  42   1.0000      -0.794039       -21.6069 
  43   1.0000      -0.753974       -20.5167 
  44   1.0000      -0.708963       -19.2919 
  45   1.0000      -0.678646       -18.4669 
  46   1.0000      -0.669549       -18.2193 
  47   1.0000      -0.639916       -17.4130 
  48   1.0000      -0.638116       -17.3640 
  49   1.0000      -0.628503       -17.1024 
  50   1.0000      -0.619692       -16.8627 
  51   1.0000      -0.616690       -16.7810 
  52   1.0000      -0.613112       -16.6836 
  53   1.0000      -0.601284       -16.3618 
  54   1.0000      -0.599844       -16.3226 
  55   1.0000      -0.592696       -16.1281 
  56   1.0000      -0.582967       -15.8633 
  57   1.0000      -0.578739       -15.7483 
  58   1.0000      -0.575127       -15.6500 
  59   1.0000      -0.564584       -15.3631 
  60   1.0000      -0.555136       -15.1060 
  61   1.0000      -0.550027       -14.9670 
  62   1.0000      -0.508800       -13.8452 
  63   1.0000      -0.507468       -13.8089 
  64   1.0000      -0.502464       -13.6728 
  65   1.0000      -0.497519       -13.5382 
  66   1.0000      -0.491050       -13.3622 
  67   1.0000      -0.486967       -13.2511 
  68   1.0000      -0.484603       -13.1867 
  69   1.0000      -0.480221       -13.0675 
  70   1.0000      -0.474881       -12.9222 
  71   1.0000      -0.473676       -12.8894 
  72   1.0000      -0.468103       -12.7377 
  73   1.0000      -0.465729       -12.6731 
  74   1.0000      -0.459113       -12.4931 
  75   1.0000      -0.455733       -12.4011 
  76   1.0000      -0.451126       -12.2757 
  77   1.0000      -0.449337       -12.2271 
  78   1.0000      -0.448220       -12.1967 
  79   1.0000      -0.445111       -12.1121 
  80   1.0000      -0.441189       -12.0054 
  81   1.0000      -0.437838       -11.9142 
  82   1.0000      -0.434760       -11.8304 
  83   1.0000      -0.432489       -11.7686 
  84   1.0000      -0.426897       -11.6164 
  85   1.0000      -0.416584       -11.3358 
  86   1.0000      -0.411889       -11.2081 
  87   1.0000      -0.403616       -10.9829 
  88   1.0000      -0.399440       -10.8693 
  89   1.0000      -0.385038       -10.4774 
  90   1.0000      -0.375134       -10.2079 
  91   1.0000      -0.342082        -9.3085 
  92   1.0000      -0.263431        -7.1683 
  93   1.0000      -0.250482        -6.8160 
  94   1.0000      -0.238688        -6.4950 
  95   1.0000      -0.236873        -6.4456 
  96   0.0000      -0.003643        -0.0991 
  97   0.0000       0.006745         0.1835 
  98   0.0000       0.028791         0.7835 
  99   0.0000       0.053217         1.4481 
 100   0.0000       0.059033         1.6064 
 101   0.0000       0.091227         2.4824 
 102   0.0000       0.101207         2.7540 
 103   0.0000       0.108503         2.9525 
 104   0.0000       0.123806         3.3689 
 105   0.0000       0.133698         3.6381 
 106   0.0000       0.146228         3.9791 

                 SPIN DOWN ORBITALS
  NO   OCC          E(Eh)            E(eV) 
   0   1.0000     -24.743308      -673.2996 
   1   1.0000     -24.742940      -673.2896 
   2   1.0000     -24.740063      -673.2113 
   3   1.0000     -24.739490      -673.1957 
   4   1.0000     -24.738426      -673.1668 
   5   1.0000     -24.738359      -673.1650 
   6   1.0000     -24.736815      -673.1230 
   7   1.0000     -24.734023      -673.0470 
   8   1.0000     -24.733248      -673.0259 
   9   1.0000     -24.732464      -673.0046 
  10   1.0000     -24.722865      -672.7434 
  11   1.0000     -24.722857      -672.7431 
  12   1.0000     -24.697928      -672.0648 
  13   1.0000     -24.697919      -672.0645 
  14   1.0000     -19.061372      -518.6863 
  15   1.0000     -19.059677      -518.6402 
  16   1.0000     -10.402686      -283.0715 
  17   1.0000     -10.402305      -283.0611 
  18   1.0000     -10.401021      -283.0262 
  19   1.0000     -10.396278      -282.8971 
  20   1.0000     -10.381172      -282.4861 
  21   1.0000     -10.360016      -281.9104 
  22   1.0000     -10.343081      -281.4495 
  23   1.0000     -10.254224      -279.0316 
  24   1.0000      -1.328694       -36.1556 
  25   1.0000      -1.316270       -35.8175 
  26   1.0000      -1.307571       -35.5808 
  27   1.0000      -1.301792       -35.4236 
  28   1.0000      -1.296070       -35.2679 
  29   1.0000      -1.290870       -35.1264 
  30   1.0000      -1.262451       -34.3530 
  31   1.0000      -1.260009       -34.2866 
  32   1.0000      -1.254393       -34.1338 
  33   1.0000      -1.249179       -33.9919 
  34   1.0000      -1.244148       -33.8550 
  35   1.0000      -1.241245       -33.7760 
  36   1.0000      -1.233335       -33.5608 
  37   1.0000      -1.204717       -32.7820 
  38   1.0000      -1.024592       -27.8806 
  39   1.0000      -0.942116       -25.6363 
  40   1.0000      -0.842663       -22.9300 
  41   1.0000      -0.820418       -22.3247 
  42   1.0000      -0.789827       -21.4923 
  43   1.0000      -0.749348       -20.3908 
  44   1.0000      -0.704607       -19.1733 
  45   1.0000      -0.673681       -18.3318 
  46   1.0000      -0.669456       -18.2168 
  47   1.0000      -0.638442       -17.3729 
  48   1.0000      -0.636357       -17.3161 
  49   1.0000      -0.626909       -17.0591 
  50   1.0000      -0.617557       -16.8046 
  51   1.0000      -0.613895       -16.7049 
  52   1.0000      -0.611326       -16.6350 
  53   1.0000      -0.598783       -16.2937 
  54   1.0000      -0.597882       -16.2692 
  55   1.0000      -0.590657       -16.0726 
  56   1.0000      -0.581998       -15.8370 
  57   1.0000      -0.576946       -15.6995 
  58   1.0000      -0.574534       -15.6339 
  59   1.0000      -0.563994       -15.3470 
  60   1.0000      -0.550026       -14.9670 
  61   1.0000      -0.526510       -14.3271 
  62   1.0000      -0.507781       -13.8174 
  63   1.0000      -0.506511       -13.7829 
  64   1.0000      -0.500743       -13.6259 
  65   1.0000      -0.496735       -13.5168 
  66   1.0000      -0.490618       -13.3504 
  67   1.0000      -0.484007       -13.1705 
  68   1.0000      -0.480499       -13.0750 
  69   1.0000      -0.475959       -12.9515 
  70   1.0000      -0.474414       -12.9095 
  71   1.0000      -0.468559       -12.7501 
  72   1.0000      -0.467871       -12.7314 
  73   1.0000      -0.460027       -12.5180 
  74   1.0000      -0.457820       -12.4579 
  75   1.0000      -0.455522       -12.3954 
  76   1.0000      -0.449380       -12.2282 
  77   1.0000      -0.447638       -12.1808 
  78   1.0000      -0.446006       -12.1364 
  79   1.0000      -0.444655       -12.0997 
  80   1.0000      -0.440786       -11.9944 
  81   1.0000      -0.437306       -11.8997 
  82   1.0000      -0.434185       -11.8148 
  83   1.0000      -0.432302       -11.7635 
  84   1.0000      -0.426230       -11.5983 
  85   1.0000      -0.416057       -11.3215 
  86   1.0000      -0.411889       -11.2081 
  87   1.0000      -0.402415       -10.9503 
  88   1.0000      -0.399412       -10.8685 
  89   1.0000      -0.385036       -10.4774 
  90   1.0000      -0.373396       -10.1606 
  91   1.0000      -0.341329        -9.2880 
  92   1.0000      -0.250482        -6.8160 
  93   1.0000      -0.238686        -6.4950 
  94   1.0000      -0.236872        -6.4456 
  95   0.0000      -0.103471        -2.8156 
  96   0.0000       0.000095         0.0026 
  97   0.0000       0.007751         0.2109 
  98   0.0000       0.031094         0.8461 
  99   0.0000       0.055755         1.5172 
 100   0.0000       0.064082         1.7438 
 101   0.0000       0.094878         2.5818 
 102   0.0000       0.104068         2.8318 
 103   0.0000       0.109164         2.9705 
 104   0.0000       0.125820         3.4237 
 105   0.0000       0.134897         3.6707 
*Only the first 10 virtual orbitals were printed.

                    ********************************
                    * MULLIKEN POPULATION ANALYSIS *
                    ********************************

--------------------------------------------
MULLIKEN ATOMIC CHARGES AND SPIN POPULATIONS
--------------------------------------------
   0 C :    0.143514    0.000002
   1 O :   -0.472605    0.000012
   2 O :   -0.486487    0.000002
   3 C :    0.343130   -0.000018
   4 C :    0.315841    0.000080
   5 C :    0.336304    0.000368
   6 C :    0.324750    0.000481
   7 C :    0.311976    0.009824
   8 C :    0.402557   -0.016648
   9 C :    0.265654    0.846200
  10 F :   -0.211928    0.000001
  11 F :   -0.217981    0.000001
  12 F :   -0.184026   -0.000000
  13 F :   -0.191452   -0.000001
  14 F :   -0.176801   -0.000010
  15 F :   -0.175336   -0.000032
  16 F :   -0.171313   -0.000044
  17 F :   -0.171876   -0.000024
  18 F :   -0.173612    0.001184
  19 F :   -0.171755    0.000672
  20 F :   -0.180504    0.028556
  21 F :   -0.169288    0.000647
  22 F :   -0.143947    0.065597
  23 F :   -0.144817    0.063152
Sum of atomic charges         :   -1.0000000
Sum of atomic spin populations:    1.0000000

-----------------------------------------------------
MULLIKEN REDUCED ORBITAL CHARGES AND SPIN POPULATIONS
-----------------------------------------------------
CHARGE
  0 C s       :     3.049703  s :     3.049703
      pz      :     0.836977  p :     2.538306
      px      :     0.884066
      py      :     0.817263
      dz2     :     0.037864  d :     0.243677
      dxz     :     0.024106
      dyz     :     0.056340
      dx2y2   :     0.058084
      dxy     :     0.067283
      f0      :     0.002397  f :     0.024799
      f+1     :     0.001731
      f-1     :     0.003418
      f+2     :     0.005104
      f-2     :     0.002812
      f+3     :     0.004419
      f-3     :     0.004919

  1 O s       :     3.764904  s :     3.764904
      pz      :     1.476762  p :     4.678874
      px      :     1.624160
      py      :     1.577952
      dz2     :     0.006303  d :     0.027162
      dxz     :     0.003910
      dyz     :     0.006390
      dx2y2   :     0.004651
      dxy     :     0.005908
      f0      :     0.000146  f :     0.001664
      f+1     :     0.000135
      f-1     :     0.000350
      f+2     :     0.000266
      f-2     :     0.000314
      f+3     :     0.000221
      f-3     :     0.000232

  2 O s       :     3.765392  s :     3.765392
      pz      :     1.612187  p :     4.692435
      px      :     1.699124
      py      :     1.381124
      dz2     :     0.003099  d :     0.027013
      dxz     :     0.001165
      dyz     :     0.007714
      dx2y2   :     0.008057
      dxy     :     0.006978
      f0      :     0.000162  f :     0.001647
      f+1     :     0.000033
      f-1     :     0.000271
      f+2     :     0.000268
      f-2     :     0.000137
      f+3     :     0.000374
      f-3     :     0.000403

  3 C s       :     3.137122  s :     3.137122
      pz      :     0.647772  p :     2.246568
      px      :     0.963778
      py      :     0.635019
      dz2     :     0.043811  d :     0.246903
      dxz     :     0.048855
      dyz     :     0.064684
      dx2y2   :     0.038550
      dxy     :     0.051004
      f0      :     0.004972  f :     0.026277
      f+1     :     0.004637
      f-1     :     0.005207
      f+2     :     0.002915
      f-2     :     0.001365
      f+3     :     0.004329
      f-3     :     0.002852

  4 C s       :     3.152795  s :     3.152795
      pz      :     0.614144  p :     2.228915
      px      :     0.933429
      py      :     0.681343
      dz2     :     0.055838  d :     0.274809
      dxz     :     0.055769
      dyz     :     0.067780
      dx2y2   :     0.038223
      dxy     :     0.057199
      f0      :     0.003896  f :     0.027640
      f+1     :     0.004991
      f-1     :     0.007854
      f+2     :     0.002169
      f-2     :     0.002150
      f+3     :     0.004025
      f-3     :     0.002555

  5 C s       :     3.150964  s :     3.150964
      pz      :     0.585274  p :     2.203856
      px      :     0.914287
      py      :     0.704294
      dz2     :     0.069871  d :     0.280960
      dxz     :     0.060431
      dyz     :     0.059189
      dx2y2   :     0.034745
      dxy     :     0.056724
      f0      :     0.004647  f :     0.027916
      f+1     :     0.004498
      f-1     :     0.006777
      f+2     :     0.002994
      f-2     :     0.003984
      f+3     :     0.002729
      f-3     :     0.002288

  6 C s       :     3.153136  s :     3.153136
      pz      :     0.577416  p :     2.210588
      px      :     0.917127
      py      :     0.716045
      dz2     :     0.077904  d :     0.283507
      dxz     :     0.060580
      dyz     :     0.053552
      dx2y2   :     0.033914
      dxy     :     0.057557
      f0      :     0.006055  f :     0.028020
      f+1     :     0.003917
      f-1     :     0.004691
      f+2     :     0.004053
      f-2     :     0.005205
      f+3     :     0.002108
      f-3     :     0.001990

  7 C s       :     3.158088  s :     3.158088
      pz      :     0.585000  p :     2.218437
      px      :     0.932475
      py      :     0.700962
      dz2     :     0.073478  d :     0.283464
      dxz     :     0.060412
      dyz     :     0.057718
      dx2y2   :     0.033706
      dxy     :     0.058150
      f0      :     0.005179  f :     0.028035
      f+1     :     0.004212
      f-1     :     0.006092
      f+2     :     0.003314
      f-2     :     0.004584
      f+3     :     0.002517
      f-3     :     0.002138

  8 C s       :     3.076303  s :     3.076303
      pz      :     0.605953  p :     2.210738
      px      :     0.931059
      py      :     0.673725
      dz2     :     0.061616  d :     0.282725
      dxz     :     0.058788
      dyz     :     0.063305
      dx2y2   :     0.039303
      dxy     :     0.059714
      f0      :     0.004031  f :     0.027677
      f+1     :     0.004703
      f-1     :     0.007691
      f+2     :     0.002499
      f-2     :     0.003019
      f+3     :     0.003395
      f-3     :     0.002339

  9 C s       :     3.232562  s :     3.232562
      pz      :     0.586064  p :     2.273182
      px      :     0.726613
      py      :     0.960505
      dz2     :     0.048263  d :     0.201845
      dxz     :     0.053634
      dyz     :     0.043330
      dx2y2   :     0.025805
      dxy     :     0.030813
      f0      :     0.004001  f :     0.026758
      f+1     :     0.007926
      f-1     :     0.004689
      f+2     :     0.002568
      f-2     :     0.002808
      f+3     :     0.002618
      f-3     :     0.002148

 10 F s       :     3.908555  s :     3.908555
      pz      :     1.897609  p :     5.287411
      px      :     1.905939
      py      :     1.483863
      dz2     :     0.002143  d :     0.015298
      dxz     :     0.000253
      dyz     :     0.003102
      dx2y2   :     0.005906
      dxy     :     0.003894
      f0      :     0.000054  f :     0.000664
      f+1     :     0.000013
      f-1     :     0.000129
      f+2     :     0.000094
      f-2     :     0.000013
      f+3     :     0.000159
      f-3     :     0.000201

 11 F s       :     3.909413  s :     3.909413
      pz      :     1.478411  p :     5.292895
      px      :     1.918605
      py      :     1.895879
      dz2     :     0.007769  d :     0.015015
      dxz     :     0.003592
      dyz     :     0.003180
      dx2y2   :     0.000251
      dxy     :     0.000224
      f0      :     0.000315  f :     0.000657
      f+1     :     0.000150
      f-1     :     0.000159
      f+2     :     0.000017
      f-2     :     0.000013
      f+3     :     0.000001
      f-3     :     0.000001

 12 F s       :     3.912795  s :     3.912795
      pz      :     1.838193  p :     5.254357
      px      :     1.910461
      py      :     1.505703
      dz2     :     0.002063  d :     0.016173
      dxz     :     0.000551
      dyz     :     0.004781
      dx2y2   :     0.005322
      dxy     :     0.003455
      f0      :     0.000076  f :     0.000701
      f+1     :     0.000004
      f-1     :     0.000118
      f+2     :     0.000173
      f-2     :     0.000046
      f+3     :     0.000122
      f-3     :     0.000162

 13 F s       :     3.915143  s :     3.915143
      pz      :     1.456405  p :     5.259676
      px      :     1.910123
      py      :     1.893148
      dz2     :     0.008505  d :     0.015942
      dxz     :     0.003806
      dyz     :     0.003226
      dx2y2   :     0.000216
      dxy     :     0.000190
      f0      :     0.000360  f :     0.000690
      f+1     :     0.000163
      f-1     :     0.000148
      f+2     :     0.000008
      f-2     :     0.000009
      f+3     :     0.000001
      f-3     :     0.000001

 14 F s       :     3.914972  s :     3.914972
      pz      :     1.734708  p :     5.244744
      px      :     1.903698
      py      :     1.606339
      dz2     :     0.002438  d :     0.016379
      dxz     :     0.001460
      dyz     :     0.006322
      dx2y2   :     0.003403
      dxy     :     0.002756
      f0      :     0.000079  f :     0.000706
      f+1     :     0.000010
      f-1     :     0.000168
      f+2     :     0.000199
      f-2     :     0.000103
      f+3     :     0.000071
      f-3     :     0.000075

 15 F s       :     3.914676  s :     3.914676
      pz      :     1.494868  p :     5.243506
      px      :     1.908828
      py      :     1.839810
      dz2     :     0.007204  d :     0.016442
      dxz     :     0.003426
      dyz     :     0.004645
      dx2y2   :     0.000521
      dxy     :     0.000646
      f0      :     0.000262  f :     0.000711
      f+1     :     0.000119
      f-1     :     0.000232
      f+2     :     0.000041
      f-2     :     0.000050
      f+3     :     0.000004
      f-3     :     0.000003

 16 F s       :     3.915728  s :     3.915728
      pz      :     1.621455  p :     5.238323
      px      :     1.906746
      py      :     1.710122
      dz2     :     0.004016  d :     0.016550
      dxz     :     0.002340
      dyz     :     0.006556
      dx2y2   :     0.001871
      dxy     :     0.001766
      f0      :     0.000104  f :     0.000713
      f+1     :     0.000041
      f-1     :     0.000258
      f+2     :     0.000151
      f-2     :     0.000105
      f+3     :     0.000028
      f-3     :     0.000026

 17 F s       :     3.915810  s :     3.915810
      pz      :     1.583862  p :     5.238836
      px      :     1.903904
      py      :     1.751069
      dz2     :     0.004783  d :     0.016518
      dxz     :     0.002744
      dyz     :     0.006138
      dx2y2   :     0.001390
      dxy     :     0.001463
      f0      :     0.000131  f :     0.000711
      f+1     :     0.000064
      f-1     :     0.000266
      f+2     :     0.000117
      f-2     :     0.000100
      f+3     :     0.000018
      f-3     :     0.000016

 18 F s       :     3.916437  s :     3.916437
      pz      :     1.701742  p :     5.239995
      px      :     1.907853
      py      :     1.630400
      dz2     :     0.002751  d :     0.016472
      dxz     :     0.001633
      dyz     :     0.006629
      dx2y2   :     0.003030
      dxy     :     0.002429
      f0      :     0.000080  f :     0.000709
      f+1     :     0.000013
      f-1     :     0.000198
      f+2     :     0.000199
      f-2     :     0.000102
      f+3     :     0.000056
      f-3     :     0.000060

 19 F s       :     3.916068  s :     3.916068
      pz      :     1.515046  p :     5.238484
      px      :     1.903350
      py      :     1.820088
      dz2     :     0.006564  d :     0.016493
      dxz     :     0.003331
      dyz     :     0.005050
      dx2y2   :     0.000708
      dxy     :     0.000840
      f0      :     0.000220  f :     0.000709
      f+1     :     0.000108
      f-1     :     0.000247
      f+2     :     0.000058
      f-2     :     0.000066
      f+3     :     0.000006
      f-3     :     0.000004

 20 F s       :     3.917046  s :     3.917046
      pz      :     1.783974  p :     5.247190
      px      :     1.906108
      py      :     1.557109
      dz2     :     0.002037  d :     0.015602
      dxz     :     0.000921
      dyz     :     0.005640
      dx2y2   :     0.004112
      dxy     :     0.002893
      f0      :     0.000076  f :     0.000666
      f+1     :     0.000003
      f-1     :     0.000128
      f+2     :     0.000194
      f-2     :     0.000073
      f+3     :     0.000086
      f-3     :     0.000106

 21 F s       :     3.914440  s :     3.914440
      pz      :     1.462551  p :     5.237608
      px      :     1.907863
      py      :     1.867194
      dz2     :     0.008176  d :     0.016518
      dxz     :     0.003664
      dyz     :     0.003983
      dx2y2   :     0.000317
      dxy     :     0.000379
      f0      :     0.000328  f :     0.000722
      f+1     :     0.000146
      f-1     :     0.000197
      f+2     :     0.000019
      f-2     :     0.000029
      f+3     :     0.000002
      f-3     :     0.000001

 22 F s       :     3.910974  s :     3.910974
      pz      :     1.778168  p :     5.214836
      px      :     1.605979
      py      :     1.830689
      dz2     :     0.002367  d :     0.017365
      dxz     :     0.005727
      dyz     :     0.001642
      dx2y2   :     0.003643
      dxy     :     0.003986
      f0      :     0.000083  f :     0.000773
      f+1     :     0.000147
      f-1     :     0.000017
      f+2     :     0.000180
      f-2     :     0.000136
      f+3     :     0.000097
      f-3     :     0.000112

 23 F s       :     3.910441  s :     3.910441
      pz      :     1.478439  p :     5.216187
      px      :     1.877469
      py      :     1.860280
      dz2     :     0.008151  d :     0.017417
      dxz     :     0.003968
      dyz     :     0.004701
      dx2y2   :     0.000242
      dxy     :     0.000354
      f0      :     0.000339  f :     0.000772
      f+1     :     0.000194
      f-1     :     0.000190
      f+2     :     0.000019
      f-2     :     0.000029
      f+3     :     0.000001
      f-3     :     0.000001


SPIN
  0 C s       :     0.000007  s :     0.000007
      pz      :    -0.000002  p :    -0.000003
      px      :    -0.000001
      py      :    -0.000000
      dz2     :    -0.000000  d :    -0.000002
      dxz     :    -0.000000
      dyz     :    -0.000001
      dx2y2   :    -0.000001
      dxy     :     0.000000
      f0      :    -0.000000  f :     0.000000
      f+1     :    -0.000000
      f-1     :     0.000000
      f+2     :     0.000000
      f-2     :     0.000000
      f+3     :    -0.000000
      f-3     :     0.000000

  1 O s       :     0.000002  s :     0.000002
      pz      :     0.000003  p :     0.000009
      px      :     0.000005
      py      :     0.000002
      dz2     :    -0.000000  d :    -0.000000
      dxz     :    -0.000000
      dyz     :    -0.000000
      dx2y2   :    -0.000000
      dxy     :    -0.000000
      f0      :    -0.000000  f :    -0.000000
      f+1     :     0.000000
      f-1     :    -0.000000
      f+2     :    -0.000000
      f-2     :    -0.000000
      f+3     :    -0.000000
      f-3     :    -0.000000

  2 O s       :     0.000000  s :     0.000000
      pz      :     0.000001  p :     0.000002
      px      :    -0.000000
      py      :     0.000002
      dz2     :    -0.000000  d :    -0.000000
      dxz     :    -0.000000
      dyz     :    -0.000000
      dx2y2   :     0.000000
      dxy     :     0.000000
      f0      :    -0.000000  f :     0.000000
      f+1     :    -0.000000
      f-1     :    -0.000000
      f+2     :    -0.000000
      f-2     :     0.000000
      f+3     :     0.000000
      f-3     :     0.000000

  3 C s       :    -0.000034  s :    -0.000034
      pz      :     0.000000  p :     0.000014
      px      :     0.000008
      py      :     0.000006
      dz2     :     0.000001  d :     0.000001
      dxz     :     0.000000
      dyz     :    -0.000000
      dx2y2   :     0.000001
      dxy     :    -0.000000
      f0      :     0.000000  f :    -0.000000
      f+1     :    -0.000000
      f-1     :    -0.000000
      f+2     :     0.000000
      f-2     :    -0.000000
      f+3     :    -0.000000
      f-3     :    -0.000000

  4 C s       :    -0.000024  s :    -0.000024
      pz      :     0.000009  p :     0.000105
      px      :     0.000022
      py      :     0.000074
      dz2     :     0.000001  d :    -0.000001
      dxz     :     0.000000
      dyz     :    -0.000001
      dx2y2   :     0.000000
      dxy     :    -0.000001
      f0      :     0.000000  f :    -0.000000
      f+1     :     0.000000
      f-1     :    -0.000000
      f+2     :     0.000000
      f-2     :    -0.000000
      f+3     :    -0.000000
      f-3     :    -0.000000

  5 C s       :    -0.000301  s :    -0.000301
      pz      :     0.000060  p :     0.000670
      px      :     0.000399
      py      :     0.000211
      dz2     :     0.000004  d :    -0.000001
      dxz     :     0.000001
      dyz     :     0.000000
      dx2y2   :    -0.000003
      dxy     :    -0.000003
      f0      :     0.000000  f :    -0.000001
      f+1     :     0.000000
      f-1     :    -0.000000
      f+2     :    -0.000000
      f-2     :     0.000000
      f+3     :    -0.000001
      f-3     :    -0.000000

  6 C s       :    -0.000071  s :    -0.000071
      pz      :    -0.000152  p :     0.000595
      px      :     0.000373
      py      :     0.000374
      dz2     :     0.000007  d :    -0.000040
      dxz     :    -0.000002
      dyz     :    -0.000011
      dx2y2   :     0.000039
      dxy     :    -0.000072
      f0      :    -0.000001  f :    -0.000003
      f+1     :     0.000000
      f-1     :     0.000000
      f+2     :    -0.000000
      f-2     :    -0.000000
      f+3     :    -0.000001
      f-3     :    -0.000001

  7 C s       :     0.005819  s :     0.005819
      pz      :     0.000609  p :     0.003964
      px      :     0.007919
      py      :    -0.004564
      dz2     :    -0.000014  d :     0.000029
      dxz     :    -0.000005
      dyz     :    -0.000016
      dx2y2   :    -0.000024
      dxy     :     0.000088
      f0      :     0.000001  f :     0.000013
      f+1     :     0.000006
      f-1     :     0.000002
      f+2     :    -0.000000
      f-2     :     0.000007
      f+3     :    -0.000015
      f-3     :     0.000012

  8 C s       :    -0.006345  s :    -0.006345
      pz      :     0.008125  p :    -0.025031
      px      :     0.002427
      py      :    -0.035583
      dz2     :    -0.000306  d :     0.013672
      dxz     :     0.001096
      dyz     :     0.000316
      dx2y2   :     0.009904
      dxy     :     0.002662
      f0      :     0.000027  f :     0.001055
      f+1     :    -0.000001
      f-1     :     0.000096
      f+2     :     0.000283
      f-2     :     0.000021
      f+3     :     0.000657
      f-3     :    -0.000027

  9 C s       :     0.210101  s :     0.210101
      pz      :     0.050508  p :     0.635904
      px      :     0.018369
      py      :     0.567027
      dz2     :     0.000341  d :     0.001676
      dxz     :     0.000229
      dyz     :    -0.000153
      dx2y2   :    -0.000705
      dxy     :     0.001964
      f0      :    -0.000283  f :    -0.001482
      f+1     :    -0.000030
      f-1     :    -0.000209
      f+2     :    -0.000314
      f-2     :    -0.000167
      f+3     :    -0.000092
      f-3     :    -0.000387

 10 F s       :     0.000000  s :     0.000000
      pz      :    -0.000000  p :     0.000001
      px      :     0.000001
      py      :     0.000000
      dz2     :     0.000000  d :     0.000000
      dxz     :    -0.000000
      dyz     :    -0.000000
      dx2y2   :    -0.000000
      dxy     :     0.000000
      f0      :    -0.000000  f :    -0.000000
      f+1     :    -0.000000
      f-1     :     0.000000
      f+2     :     0.000000
      f-2     :    -0.000000
      f+3     :     0.000000
      f-3     :    -0.000000

 11 F s       :     0.000000  s :     0.000000
      pz      :     0.000000  p :     0.000000
      px      :     0.000000
      py      :     0.000000
      dz2     :    -0.000000  d :     0.000000
      dxz     :     0.000000
      dyz     :    -0.000000
      dx2y2   :    -0.000000
      dxy     :    -0.000000
      f0      :    -0.000000  f :    -0.000000
      f+1     :     0.000000
      f-1     :    -0.000000
      f+2     :     0.000000
      f-2     :    -0.000000
      f+3     :     0.000000
      f-3     :     0.000000

 12 F s       :    -0.000001  s :    -0.000001
      pz      :     0.000000  p :     0.000000
      px      :     0.000000
      py      :     0.000000
      dz2     :     0.000000  d :    -0.000000
      dxz     :    -0.000000
      dyz     :    -0.000000
      dx2y2   :    -0.000000
      dxy     :     0.000000
      f0      :    -0.000000  f :    -0.000000
      f+1     :    -0.000000
      f-1     :     0.000000
      f+2     :    -0.000000
      f-2     :    -0.000000
      f+3     :    -0.000000
      f-3     :    -0.000000

 13 F s       :     0.000000  s :     0.000000
      pz      :     0.000000  p :    -0.000001
      px      :    -0.000002
      py      :     0.000000
      dz2     :    -0.000000  d :     0.000000
      dxz     :     0.000000
      dyz     :    -0.000000
      dx2y2   :    -0.000000
      dxy     :     0.000000
      f0      :    -0.000000  f :    -0.000000
      f+1     :    -0.000000
      f-1     :    -0.000000
      f+2     :    -0.000000
      f-2     :     0.000000
      f+3     :    -0.000000
      f-3     :    -0.000000

 14 F s       :     0.000000  s :     0.000000
      pz      :    -0.000003  p :    -0.000010
      px      :    -0.000010
      py      :     0.000003
      dz2     :    -0.000000  d :    -0.000000
      dxz     :    -0.000000
      dyz     :    -0.000000
      dx2y2   :     0.000000
      dxy     :    -0.000000
      f0      :     0.000000  f :    -0.000000
      f+1     :    -0.000000
      f-1     :     0.000000
      f+2     :     0.000000
      f-2     :    -0.000000
      f+3     :     0.000000
      f-3     :    -0.000000

 15 F s       :    -0.000012  s :    -0.000012
      pz      :     0.000003  p :    -0.000020
      px      :    -0.000024
      py      :     0.000001
      dz2     :    -0.000000  d :    -0.000000
      dxz     :     0.000000
      dyz     :    -0.000000
      dx2y2   :     0.000000
      dxy     :     0.000000
      f0      :    -0.000000  f :    -0.000000
      f+1     :     0.000000
[...]
  7:     31.29   0.000334    1.69  0.003328  (-0.016822 -0.003840 -0.055050)
  8:     33.38   0.000437    2.21  0.004087  (-0.010436 -0.037585 -0.050653)
  9:     40.15   0.000538    2.72  0.004182  (-0.000351 -0.064472 -0.005031)
 10:     49.29   0.000003    0.02  0.000019  (-0.000917  0.001986 -0.003753)
 11:     58.62   0.000082    0.41  0.000436  ( 0.006510 -0.012448  0.015448)
 12:     65.15   0.000041    0.21  0.000196  ( 0.001814  0.009662  0.009990)
 13:     71.32   0.000608    3.07  0.002659  (-0.017702  0.035884 -0.032529)
 14:    118.72   0.000771    3.89  0.002025  (-0.032985  0.012571 -0.027918)
 15:    137.06   0.000515    2.60  0.001172  (-0.034177  0.001988 -0.000073)
 16:    164.14   0.000263    1.33  0.000500  ( 0.018574 -0.010313  0.006945)
 17:    193.41   0.003313   16.74  0.005345  (-0.002442 -0.006383 -0.072790)
 18:    203.72   0.000147    0.74  0.000225  ( 0.013928 -0.003744  0.004127)
 19:    209.50   0.000098    0.50  0.000146  ( 0.002075  0.011682  0.002305)
 20:    215.71   0.000413    2.08  0.000597  ( 0.003432 -0.019203  0.014706)
 21:    232.65   0.000225    1.13  0.000301  ( 0.009770  0.006361  0.012859)
 22:    241.27   0.000031    0.16  0.000040  (-0.006301  0.000344  0.000529)
 23:    254.06   0.000134    0.68  0.000164  (-0.006384  0.001957  0.010933)
 24:    260.07   0.000005    0.03  0.000006  ( 0.002226  0.000037 -0.001066)
 25:    264.57   0.000219    1.11  0.000259  ( 0.006494 -0.002038  0.014570)
 26:    298.48   0.001368    6.91  0.001431  (-0.036955  0.007002  0.003981)
 27:    306.97   0.000437    2.21  0.000444  ( 0.020289 -0.002481 -0.005138)
 28:    314.65   0.000265    1.34  0.000263  (-0.011227  0.011495 -0.002078)
 29:    341.53   0.000024    0.12  0.000022  ( 0.004242 -0.000398  0.001859)
 30:    351.76   0.000588    2.97  0.000521  ( 0.017182 -0.000697  0.015024)
 31:    364.73   0.000225    1.14  0.000192  (-0.011718 -0.000510 -0.007390)
 32:    367.49   0.000292    1.47  0.000248  (-0.015635  0.001180 -0.001317)
 33:    373.66   0.000086    0.44  0.000072  ( 0.008004 -0.001972  0.001992)
 34:    376.62   0.000008    0.04  0.000007  (-0.002087 -0.001335 -0.000761)
 35:    416.44   0.000611    3.09  0.000458  ( 0.018821 -0.009207 -0.004319)
 36:    460.03   0.003199   16.17  0.002170  ( 0.044987 -0.009577  0.007380)
 37:    507.38   0.000849    4.29  0.000522  (-0.017987 -0.008016 -0.011601)
 38:    533.56   0.019354   97.81  0.011319  ( 0.102088 -0.023858  0.018119)
 39:    544.98   0.011857   59.92  0.006790  (-0.069569 -0.043931 -0.004446)
 40:    556.78   0.002167   10.95  0.001215  ( 0.007926 -0.029015  0.017606)
 41:    573.36   0.001787    9.03  0.000973  ( 0.025586 -0.000185 -0.017837)
 42:    577.34   0.003981   20.12  0.002152  (-0.042956  0.014859  0.009251)
 43:    599.01   0.001953    9.87  0.001018  ( 0.029833 -0.010427  0.004358)
 44:    633.43   0.002245   11.34  0.001106  (-0.031745 -0.002923 -0.009463)
 45:    653.87   0.040594  205.15  0.019374  ( 0.139110  0.004703  0.000429)
 46:    675.36   0.001668    8.43  0.000771  ( 0.026053  0.003796 -0.008813)
 47:    713.40   0.000783    3.96  0.000342  (-0.017233  0.001321  0.006617)
 48:    743.43   0.005427   27.43  0.002278  (-0.046357 -0.008417  0.007641)
 49:    759.93   0.000826    4.18  0.000339  (-0.008085  0.016467 -0.001681)
 50:    792.66   0.020650  104.35  0.008130  (-0.066578 -0.030949  0.052336)
 51:    869.41   0.005665   28.63  0.002033  (-0.043924 -0.009182  0.004437)
 52:    999.48   0.007992   40.39  0.002495  ( 0.048673  0.001128  0.011179)
 53:   1060.05   0.046303  233.99  0.013631  (-0.017215 -0.107749  0.041529)
 54:   1085.66   0.047430  239.69  0.013633  ( 0.015325  0.073324  0.089566)
 55:   1095.19   0.017074   86.29  0.004865  ( 0.021036  0.017688 -0.064108)
 56:   1113.70   0.014598   73.77  0.004090  (-0.012959  0.028744 -0.055643)
 57:   1124.21   0.099527  502.97  0.027627  ( 0.006619  0.159937 -0.044761)
 58:   1130.64   0.031561  159.50  0.008711  ( 0.013215 -0.090713 -0.017538)
 59:   1139.32   0.026732  135.09  0.007322  ( 0.009266  0.074638  0.040809)
 60:   1145.22   0.107341  542.46  0.029250  ( 0.002689 -0.010812 -0.170662)
 61:   1153.04   0.112293  567.48  0.030391  (-0.020725 -0.021910 -0.171703)
 62:   1168.70   0.000728    3.68  0.000194  ( 0.004590  0.011608  0.006214)
 63:   1185.82   0.011773   59.50  0.003098  ( 0.023008 -0.008726 -0.049927)
 64:   1218.32   0.011827   59.77  0.003029  (-0.004541  0.033526  0.043414)
 65:   1239.80   0.028272  142.88  0.007116  ( 0.029169 -0.003354 -0.079083)
 66:   1253.67   0.037260  188.30  0.009275  (-0.028557  0.016962  0.090397)
 67:   1269.02   0.002961   14.96  0.000728  (-0.019557  0.009019  0.016255)
 68:   1310.04   0.006711   33.91  0.001599  (-0.023818 -0.029691  0.012238)
 69:   1350.99   0.037229  188.14  0.008599  (-0.090834  0.018074  0.004677)
 70:   1374.03   0.029909  151.15  0.006793  (-0.073177 -0.027555  0.026051)
 71:   1731.14   0.161980  818.58  0.029199  ( 0.022419 -0.151527 -0.075737)

* The epsilon (eps) is given for a Dirac delta lineshape.
** The dipole moment derivative (T) already includes vibrational overlap.

The first frequency considered to be a vibration is 6
The total number of vibrations considered is 66


--------------------------
THERMOCHEMISTRY AT 298.15K
--------------------------

Temperature         ...   298.15 K
Pressure            ...     1.00 atm
Total Mass          ...   394.06 AMU
Quasi RRHO          ...     True
Cut-Off Frequency   ...     1.00 cm^-1

Throughout the following assumptions are being made:
  (1) The electronic state is orbitally nondegenerate
      but the spin degeneracy is treated
  (2) There are no thermally accessible electronically excited states
  (3) Hindered rotations indicated by low frequency modes are not
      treated as such but are treated as vibrations and this may
      cause some error
  (4) All equations used are the standard statistical mechanics
      equations for an ideal gas
  (5) All vibrations are strictly harmonic

freq.      19.73  E(vib)   ...       0.56 
freq.      31.29  E(vib)   ...       0.55 
freq.      33.38  E(vib)   ...       0.55 
freq.      40.15  E(vib)   ...       0.54 
freq.      49.29  E(vib)   ...       0.52 
freq.      58.62  E(vib)   ...       0.51 
freq.      65.15  E(vib)   ...       0.50 
freq.      71.32  E(vib)   ...       0.50 
freq.     118.72  E(vib)   ...       0.44 
freq.     137.06  E(vib)   ...       0.42 
freq.     164.14  E(vib)   ...       0.39 
freq.     193.41  E(vib)   ...       0.36 
freq.     203.72  E(vib)   ...       0.35 
freq.     209.50  E(vib)   ...       0.34 
freq.     215.71  E(vib)   ...       0.34 
freq.     232.65  E(vib)   ...       0.32 
freq.     241.27  E(vib)   ...       0.31 
freq.     254.06  E(vib)   ...       0.30 
freq.     260.07  E(vib)   ...       0.30 
freq.     264.57  E(vib)   ...       0.29 
freq.     298.48  E(vib)   ...       0.26 
freq.     306.97  E(vib)   ...       0.26 
freq.     314.65  E(vib)   ...       0.25 
freq.     341.53  E(vib)   ...       0.23 
freq.     351.76  E(vib)   ...       0.23 
freq.     364.73  E(vib)   ...       0.22 
freq.     367.49  E(vib)   ...       0.21 
freq.     373.66  E(vib)   ...       0.21 
freq.     376.62  E(vib)   ...       0.21 
freq.     416.44  E(vib)   ...       0.18 
freq.     460.03  E(vib)   ...       0.16 
freq.     507.38  E(vib)   ...       0.14 
freq.     533.56  E(vib)   ...       0.13 
freq.     544.98  E(vib)   ...       0.12 
freq.     556.78  E(vib)   ...       0.12 
freq.     573.36  E(vib)   ...       0.11 
freq.     577.34  E(vib)   ...       0.11 
freq.     599.01  E(vib)   ...       0.10 
freq.     633.43  E(vib)   ...       0.09 
freq.     653.87  E(vib)   ...       0.08 
freq.     675.36  E(vib)   ...       0.08 
freq.     713.40  E(vib)   ...       0.07 
freq.     743.43  E(vib)   ...       0.06 
freq.     759.93  E(vib)   ...       0.06 
freq.     792.66  E(vib)   ...       0.05 
freq.     869.41  E(vib)   ...       0.04 
freq.     999.48  E(vib)   ...       0.02 
freq.    1060.05  E(vib)   ...       0.02 
freq.    1085.66  E(vib)   ...       0.02 
freq.    1095.19  E(vib)   ...       0.02 
freq.    1113.70  E(vib)   ...       0.01 
freq.    1124.21  E(vib)   ...       0.01 
freq.    1130.64  E(vib)   ...       0.01 
freq.    1139.32  E(vib)   ...       0.01 
freq.    1145.22  E(vib)   ...       0.01 
freq.    1153.04  E(vib)   ...       0.01 
freq.    1168.70  E(vib)   ...       0.01 
freq.    1185.82  E(vib)   ...       0.01 
freq.    1218.32  E(vib)   ...       0.01 
freq.    1239.80  E(vib)   ...       0.01 
freq.    1253.67  E(vib)   ...       0.01 
freq.    1269.02  E(vib)   ...       0.01 
freq.    1310.04  E(vib)   ...       0.01 
freq.    1350.99  E(vib)   ...       0.01 
freq.    1374.03  E(vib)   ...       0.01 
freq.    1731.14  E(vib)   ...       0.00 

------------
INNER ENERGY
------------

The inner energy is: U= E(el) + E(ZPE) + E(vib) + E(rot) + E(trans)
    E(el)   - is the total energy from the electronic structure calculation
              = E(kin-el) + E(nuc-el) + E(el-el) + E(nuc-nuc)
    E(ZPE)  - the the zero temperature vibrational energy from the frequency calculation
    E(vib)  - the the finite temperature correction to E(ZPE) due to population
              of excited vibrational states
    E(rot)  - is the rotational thermal energy
    E(trans)- is the translational thermal energy

Summary of contributions to the inner energy U:
Electronic energy                ...  -1853.26617435 Eh
Zero point energy                ...      0.09276276 Eh      58.21 kcal/mol
Thermal vibrational correction   ...      0.01975459 Eh      12.40 kcal/mol
Thermal rotational correction    ...      0.00141627 Eh       0.89 kcal/mol
Thermal translational correction ...      0.00141627 Eh       0.89 kcal/mol
-----------------------------------------------------------------------
Total thermal energy                  -1853.15082445 Eh


Summary of corrections to the electronic energy:
(perhaps to be used in another calculation)
Total thermal correction                  0.02258714 Eh      14.17 kcal/mol
Non-thermal (ZPE) correction              0.09276276 Eh      58.21 kcal/mol
-----------------------------------------------------------------------
Total correction                          0.11534990 Eh      72.38 kcal/mol


--------
ENTHALPY
--------

The enthalpy is H = U + kB*T
                kB is Boltzmann's constant
Total thermal energy              ...  -1853.15082445 Eh 
Thermal Enthalpy correction       ...      0.00094421 Eh       0.59 kcal/mol
-----------------------------------------------------------------------
Total Enthalpy                    ...  -1853.14988024 Eh


Note: Only C1 symmetry has been detected, increase convergence thresholds 
      if your molecule has a higher symmetry. Symmetry factor of 1.0 is   
      used for the rotational entropy correction. 
 

Note: Rotational entropy computed according to Herzberg 
Infrared and Raman Spectra, Chapter V,1, Van Nostrand Reinhold, 1945 
Point Group:  C1, Symmetry Number:   1  
Rotational constants in cm-1:     0.022688     0.004048     0.004015 

Vibrational entropy computed according to the QRRHO of S. Grimme
Chem.Eur.J. 2012 18 9955 using a reference frequency of 100.0 cm-1


-------
ENTROPY
-------

The entropy contributions are T*S = T*(S(el)+S(vib)+S(rot)+S(trans))
     S(el)   - electronic entropy
     S(vib)  - vibrational entropy
     S(rot)  - rotational entropy
     S(trans)- translational entropy
The entropies will be listed as multiplied by the temperature to get
units of energy

Electronic entropy                ...      0.00065446 Eh      0.41 kcal/mol
Vibrational entropy               ...      0.03559810 Eh     22.34 kcal/mol
Rotational entropy                ...      0.01650391 Eh     10.36 kcal/mol
Translational entropy             ...      0.02081341 Eh     13.06 kcal/mol
-----------------------------------------------------------------------
Final entropy term                ...      0.07356987 Eh     46.17 kcal/mol

In case the symmetry of your molecule has not been determined correctly
or in case you have a reason to use a different symmetry number we print 
out the resulting rotational entropy values for sn=1,12:

 non-linear molecules -----------------------------------
|  sn= 1 | S(rot)=       0.01650391 Eh     10.36 kcal/mol|
|  sn= 2 | S(rot)=       0.01584945 Eh      9.95 kcal/mol|
|  sn= 3 | S(rot)=       0.01546662 Eh      9.71 kcal/mol|
|  sn= 4 | S(rot)=       0.01519499 Eh      9.53 kcal/mol|
|  sn= 5 | S(rot)=       0.01498431 Eh      9.40 kcal/mol|
|  sn= 6 | S(rot)=       0.01481216 Eh      9.29 kcal/mol|
|  sn= 7 | S(rot)=       0.01466662 Eh      9.20 kcal/mol|
|  sn= 8 | S(rot)=       0.01454054 Eh      9.12 kcal/mol|
|  sn= 9 | S(rot)=       0.01442933 Eh      9.05 kcal/mol|
|  sn=10 | S(rot)=       0.01432985 Eh      8.99 kcal/mol|
|  sn=11 | S(rot)=       0.01423986 Eh      8.94 kcal/mol|
|  sn=12 | S(rot)=       0.01415771 Eh      8.88 kcal/mol|
 linear molecules ---------------------------------------
|  Dinfh | S(rot)=       0.01053548 Eh      6.61 kcal/mol|
|  Cinfv | S(rot)=       0.01118994 Eh      7.02 kcal/mol|
 --------------------------------------------------------


-------------------
GIBBS FREE ENERGY
-------------------

The Gibbs free energy is G = H - T*S

Total enthalpy                    ...  -1853.14988024 Eh 
Total entropy correction          ...     -0.07356987 Eh    -46.17 kcal/mol
-----------------------------------------------------------------------
Final Gibbs free energy         ...  -1853.22345012 Eh

For completeness - the Gibbs free energy minus the electronic energy
G-E(el)                           ...      0.04272423 Eh     26.81 kcal/mol


Maximum memory used throughout the entire PROP-calculation: 523.6 MB

--------------------------------
SUGGESTED CITATIONS FOR THIS RUN
--------------------------------

Below you find a list of papers that are relevant to this ORCA run
We neither can nor want to force you to cite these papers, but we appreciate if you do
You receive ORCA, which is the product of decades of hard work by many enthusiastic individuals, for free
The only thing we kindly ask in return is that you cite our papers,
We deeply appreciate it, if you show your appreciation for ORCA by not just citing the generic ORCA reference.

Please note that relegating all ORCA citations to the supporting information does *not* help us.
SI sections are not indexed - citations you put there will not count into any citation statistics
But we need these citations in order to attract the funding resources that allow us to do what we are doing

Therefore, if you are a happy ORCA user, please consider citing a few of the papers listed below in the main body of your paper

In addition to the list printed below, the program has created the file rf_mecn_freq_B3L_C8_D_B.bibtex that contains the list in bibtex format
You can import this file easily into all common literature databanks and citation aid programs


List of essential papers. We consider these as the minimum necessary citations

  1. Neese,F.
     Software update: the ORCA program system, version 5.0
     WIRES Comput. Molec. Sci., 2022 12(1)e1606
     doi.org/10.1002/wcms.1606

List of papers to cite with high priority. The work reported in these papers was absolutely
necessary for this run to complete.
Our perspective: the developers of density functionals and basis sets usually get cited in chemistry papers
Good! But without the algorithms to do something with them, the functionals or basis sets would not do anything.
Hence, in our opinion, the algorithm design and method developments papers are equally worthy of getting cited

  1. Neese,F.
     An improvement of the resolution of the identity approximation for the formation of the Coulomb matrix
     J. Comp. Chem., 2003 24(14)1740-1747
     doi.org/10.1002/jcc.10318
  2. Neese,F.; Wennmohs,F.; Hansen,A.; Becker,U.
     Efficient, approximate and parallel Hartree-Fock and hybrid DFT calculations. A 'chain-of-spheres' algorithm for the Hartree-Fock exchange
     Chem. Phys., 2009 356(1-3)98-109
     doi.org/10.1016/j.chemphys.2008.10.036
  3. Bykov,D.; Petrenko,T.; Izsak,R.; Kossmann,S.; Becker,U.; Valeev,E.; Neese,F.
     Efficient implementation of the analytic second derivatives of Hartree-Fock and hybrid DFT energies: a detailed analysis of different approximations
     Molec. Phys., 2015 113 1961-1977
     doi.org/10.1080/00268976.2015.1025114
  4. Garcia-Rates,M.; Neese,F.
     Efficient implementation of the analytical second derivatives of hartree-fock and hybrid DFT energies within the framework of the conductor-like polarizable continuum model
     J. Comput. Chem., 2019 40 1816-1828
     doi.org/10.1002/jcc.25833
  5. Garcia-Rates,M.; Neese,F.
     Effect of the Solute Cavity on the Solvation Energy and its Derivatives within the Framework of the Gaussian Charge Scheme
     J. Comput. Chem., 2020 41 922-939
     doi.org/10.1002/jcc.26139
  6. Helmich-Paris,B.; de Souza,B.; Neese,F.; Izsák,R.
     An improved chain of spheres for exchange algorithm
     J. Chem. Phys., 2021 155 104109
     doi.org/doi: 10.1063/5.0058766.
  7. Neese,F.
     The SHARK Integral Generation and Digestion System
     J. Comp. Chem., 2022  1-16
     doi.org/10.1002/jcc.26942
  8. Grimme,S.; Antony,J.; Ehrlich,S.; Krieg,H.
     A consistent and accurate ab initio parametrization of density functional dispersion correction (DFT-D) for the 94 elements H-Pu
     J. Chem. Phys., 2010 132 154104
     doi.org/10.1063/1.3382344
  9. Grimme,S.; Ehrlich,S.; Goerigk,L.
     Effect of the damping function in dispersion corrected density functional theory
     J. Comput. Chem., 2011 32(7)1456-1465
     doi.org/10.1002/jcc.21759

List of suggested additional citations. These are papers that are important in the 'surrounding' of 
of this run, or papers that preceded the highly important papers. If you like your results we are grateful for a citation.

  1. Izsak,R.; Neese,F.
     An overlap fitted chain of spheres exchange method
     J. Chem. Phys., 2011 135 144105
     doi.org/10.1063/1.3646921
  2. Izsak,R.; Hansen,A.; Neese,F.
     The resolution of identity and chain of spheres approximations for the LPNO-CCSD singles Fock term
     Molec. Phys., 2012 110 2413-2417
     doi.org/10.1080/00268976.2012.687466
  3. Neese,F.
     The ORCA program system
     WIRES Comput. Molec. Sci., 2012 2(1)73-78
     doi.org/10.1002/wcms.81
  4. Izsak,R.; Neese,F.; Klopper,W.
     Robust fitting techniques in the chain of spheres approximation to the Fock exchange: The role of the complementary space
     J. Chem. Phys., 2013 139 
     doi.org/10.1063/1.4819264
  5. Neese,F.
     Software update: the ORCA program system, version 4.0
     WIRES Comput. Molec. Sci., 2018 8(1)1-6
     doi.org/10.1002/wcms.1327
  6. Neese,F.; Wennmohs,F.; Becker,U.; Riplinger,C.
     The ORCA quantum chemistry program package
     J. Chem. Phys., 2020 152 Art. No. L224108
     doi.org/10.1063/5.0004608

List of optional additional citations

  1. Neese,F.
     Approximate second-order SCF convergence for spin unrestricted wavefunctions
     Chem. Phys. Lett., 2000 325(1-3)93-98
     doi.org/10.1016/s0009-2614(00)00662-x

Timings for individual modules:

Sum of individual times          ...      897.181 sec (=  14.953 min)
Startup calculation              ...        4.204 sec (=   0.070 min)   0.5 %
SCF iterations                   ...       80.130 sec (=   1.336 min)   8.9 %
Property integrals               ...      196.224 sec (=   3.270 min)  21.9 %
SCF Response                     ...      402.490 sec (=   6.708 min)  44.9 %
Property calculations            ...      214.132 sec (=   3.569 min)  23.9 %
                             ****ORCA TERMINATED NORMALLY****
TOTAL RUN TIME: 0 days 0 hours 14 minutes 57 seconds 983 msec
