
                                 *****************
                                 * O   R   C   A *
                                 *****************

                                            #,                                       
                                            ###                                      
                                            ####                                     
                                            #####                                    
                                            ######                                   
                                           ########,                                 
                                     ,,################,,,,,                         
                               ,,#################################,,                 
                          ,,##########################################,,             
                       ,#########################################, ''#####,          
                    ,#############################################,,   '####,        
                  ,##################################################,,,,####,       
                ,###########''''           ''''###############################       
              ,#####''   ,,,,##########,,,,          '''####'''          '####       
            ,##' ,,,,###########################,,,                        '##       
           ' ,,###''''                  '''############,,,                           
         ,,##''                                '''############,,,,        ,,,,,,###''
      ,#''                                            '''#######################'''  
     '                                                          ''''####''''         
             ,#######,   #######,   ,#######,      ##                                
            ,#'     '#,  ##    ##  ,#'     '#,    #''#        ,####,   ,####,        
            ##       ##  ##   ,#'  ##            #'  '#       #'       #'  '#        
            ##       ##  #######   ##           ,######,      #####,   #    #        
            '#,     ,#'  ##    ##  '#,     ,#' ,#      #,     #,   #   #,  ,#        
             '#######'   ##     ##  '#######'  #'      '#     '####' # '####'        



                #########################################################
                #                        -***-                          #
                #          Department of theory and spectroscopy        #
                #                                                       #
                #                      Frank Neese                      #
                #                                                       #
                #     Directorship, Architecture, Infrastructure        #
                #                    SHARK, DRIVERS                     #
                #        Core code/Algorithms in most modules           #
                #                                                       #
                #        Max Planck Institute fuer Kohlenforschung      #
                #                Kaiser Wilhelm Platz 1                 #
                #                 D-45470 Muelheim/Ruhr                 #
                #                      Germany                          #
                #                                                       #
                #                  All rights reserved                  #
                #                        -***-                          #
                #########################################################


                         Program Version 6.0.1  -  RELEASE   -


 With contributions from (in alphabetic order):
[Max-Planck-Institut fuer Kohlenforschung]                               
  Daniel Aravena         : Magnetic Suceptibility                        
  Michael Atanasov       : Ab Initio Ligand Field Theory (pilot matlab implementation)
  Alexander A. Auer      : GIAO ZORA, VPT2 properties, NMR spectrum      
  Ute Becker             : All parallelization in ORCA, NUMFREQ, NUMCALC 
  Giovanni Bistoni       : ED, misc. LED, open-shell LED, HFLD           
  Martin Brehm           : Molecular dynamics                            
  Dmytro Bykov           : pre 5.0 version of the SCF Hessian            
  Marcos Casanova-Páez   : Triplet and SCS-CIS(D). UHF-(DLPNO)-IP/EA/STEOM-CCSD. UHF-CVS-IP/STEOM-CCSD   
  Vijay G. Chilkuri      : MRCI spin determinant printing, contributions to CSF-ICE 
  Pauline Colinet        : FMM embedding                                 
  Dipayan Datta          : RHF DLPNO-CCSD density                        
  Achintya Kumar Dutta   : EOM-CC, STEOM-CC                              
  Nicolas Foglia         : Exact transition moments, OPA infrastructure, MCD improvements    
  Dmitry Ganyushin       : Spin-Orbit,Spin-Spin,Magnetic field MRCI      
  Miquel Garcia-Rates    : C-PCM and meta-GGA Hessian, CCSD/C-PCM, Gaussian charge scheme 
  Tiago L. C. Gouveia    : GS-ROHF, GS-ROCIS                             
  Yang Guo               : DLPNO-NEVPT2, F12-NEVPT2, CIM, IAO-localization        
  Andreas Hansen         : Spin unrestricted coupled pair/coupled cluster methods 
  Ingolf Harden          : AUTO-CI MPn and infrastructure                
  Benjamin Helmich-Paris : MC-RPA, TRAH-(SCF,CASSCF), AVAS, COSX integrals, SCF dyn. polar. 
  Lee Huntington         : MR-EOM, pCC                                   
  Robert Izsak           : Overlap fitted RIJCOSX, COSX-SCS-MP3, EOM     
  Riya Kayal             : Wick's Theorem for AUTO-CI, AUTO-CI UHF-CCSDT 
  Emily Kempfer          : AUTO-CI, RHF CISDT and CCSDT                  
  Christian Kollmar      : KDIIS, OOCD, Brueckner-CCSD(T), CCSD density, CASPT2, CASPT2-K, improved NEVPT2 
  Axel Koslowski         : Symmetry handling                             
  Simone Kossmann        : meta-GGA functionals, TD-DFT gradient, OOMP2, (MP2 Hessian; deprecated post 5.0) 
  Lucas Lang             : DCDCAS                                        
  Marvin Lechner         : AUTO-CI (C++ implementation), FIC-MRCC        
  Spencer Leger          : CASSCF response                               
  Dagmar Lenk            : GEPOL surface, SMD, ORCA-2-JSON               
  Dimitrios Liakos       : Extrapolation schemes; Compound Job, initial MDCI parallelization 
  Dimitrios Manganas     : Further ROCIS development; embedding schemes. LFT, Crystal Embedding 
  Dimitrios Pantazis     : SARC Basis sets                               
  Anastasios Papadopoulos: AUTO-CI, single reference methods and gradients 
  Taras Petrenko         : pre 6.0 DFT Hessian and TD-DFT gradient, (ASA, deprecated), ECA, 1-Electron XAS/XES, NRVS 
  Peter Pinski           : DLPNO-MP2, DLPNO-MP2 Gradient                 
  Christoph Reimann      : Effective Core Potentials                     
  Marius Retegan         : Local ZFS, SOC                                
  Christoph Riplinger    : Optimizer, TS searches, QM/MM, DLPNO-CCSD(T), (RO)-DLPNO pert. Triples 
  Michael Roemelt        : Original ROCIS implementation                 
  Masaaki Saitow         : Open-shell DLPNO-CCSD energy and density      
  Barbara Sandhoefer     : DKH picture change effects                    
  Kantharuban Sivalingam : CASSCF convergence/infrastructure, NEVPT2 and variants, FIC-MRCI 
  Bernardo de Souza      : ESD, SOC TD-DFT                               
  Georgi L. Stoychev     : AutoAux, RI-MP2 NMR, DLPNO-MP2 response, X2C  
  Van Anh Tran           : RI-MP2 g-tensors                              
  Willem Van den Heuvel  : Paramagnetic NMR                              
  Zikuan Wang            : NOTCH, Electric field optimization            
  Frank Wennmohs         : Technical directorship and infrastructure     
  Hang Xu                : AUTO-CI-Response properties                   
                                                                         
[FACCTs GmbH]                                                            
  Markus Bursch, Miquel Garcia-Rates, Christoph Riplinger, Bernardo de Souza, Georgi L. Stoychev 
                                                                 
  APM, Basis sets (HGBS, AHGBS, def-TZVP (Ac-Lr), def2-XVPD (La-Lu)), CI-OPT, improved COSX, DLPNO-Multilevel,           
  DOCKER, DRACO, updates on ESD, GOAT, IRC, LR-CPCM, MBIS, meta-GGA TD-DFT gradient, ML-optimized integration grids, 
  MM, NACMEs, nearIR, NEB, NEB-TS, NL-DFT gradient (VV10), 2- and 3-layer-ONIOM, interface openCOSMO-RS, QMMM,   
  Crystal-QMMM, SF, symmetry and pop. for TD-DFT, r2SCAN hybrids, SOLVATOR                                   
                                                                         
[Other institutions]                                                     
  V. Asgeirsson          : NEB                                           
  Christoph Bannwarth    : sTDA-DFT, sTD-DFT, PBEh-3c, B97-3c, D3        
  Sebastian Ehlert       : rSCAN, r2SCAN, r2SCAN-3c, D4, dhf basis sets  
  Marvin Friede          : D4 for Fr, Ra, Ac-Lr                          
  Lars Goerigk           : TD-DFT with DH, B97 family of functionals     
  Stefan Grimme          : VdW corrections, initial TS optimization, DFT functionals, gCP, sTDA/sTD-DF 
  Waldemar Hujo          : DFT-NL                                        
  H. Jonsson             : NEB                                           
  Holger Kruse           : gCP                                           
  Marcel Mueller         : wB97X-3c, vDZP basis set                      
  Hagen Neugebauer       : wr2SCAN                                       
  Tobias Risthaus        : range-separated hybrid DFT                    
  Lukas Wittmann         : regularized MP2, r2SCAN double-hybrids, wr2SCAN        
                                                                         
We gratefully acknowledge several colleagues who have allowed us to      
interface, adapt or use parts of their codes:                            
  Ed Valeev, F. Pavosevic, A. Kumar             : LibInt (2-el integral package), F12 methods 
  Garnet Chan, S. Sharma, J. Yang, R. Olivares  : DMRG                   
  Ulf Ekstrom                                   : XCFun DFT Library      
  Mihaly Kallay                                 : mrcc  (arbitrary order and MRCC methods)
  Frank Weinhold                                : gennbo (NPA and NBO analysis)           
  Simon Mueller                                 : openCOSMO-RS                            
  Christopher J. Cramer and Donald G. Truhlar   : smd solvation model                     
  S Lehtola, MJT Oliveira, MAL Marques          : LibXC Library                           
  Liviu Ungur et al                             : ANISO software                          


 Your calculation uses the libint2 library for the computation of 2-el integrals
 For citations please refer to: http://libint.valeyev.net

 Your ORCA version has been built with support for libXC version: 6.2.2
 For citations please refer to: https://libxc.gitlab.io

 This ORCA versions uses:
   CBLAS   interface :  Fast vector & matrix operations
   LAPACKE interface :  Fast linear algebra routines
   SCALAPACK package :  Parallel linear algebra routines
   Shared memory     :  Shared parallel matrices
   BLAS/LAPACK       :  OpenBLAS 0.3.27  USE64BITINT DYNAMIC_ARCH NO_AFFINITY SkylakeX SINGLE_THREADED
        Core in use  :  SkylakeX
   Copyright (c) 2011-2014, The OpenBLAS Project


NOTE: MaxCore=8000 MB was set to SCF,MP2,MDCI,CIPSI,MRCI and CIS
      => If you want to overwrite this, your respective input block should be placed after the MaxCore statement
Your calculation utilizes the atom-pairwise dispersion correction
with the Becke-Johnson damping scheme (D3BJ)


Your calculation utilizes the SMD solvation module
Please cite in your paper:
A.V. Marenich, C.J. Cramer, D.G. Truhlar J. Phys. Chem. B, 113, (2009), 6378 

Warning: RI is on but no J-basis has been assigned. Assigning Def2/J (nothing to worry about!)
================================================================================

----- Orbital basis set information -----
Your calculation utilizes the basis: def2-TZVP
   F. Weigend and R. Ahlrichs, Phys. Chem. Chem. Phys. 7, 3297 (2005).

----- AuxJ basis set information -----
Your calculation utilizes the auxiliary basis: def2/J
   F. Weigend, Phys. Chem. Chem. Phys. 8, 1057 (2006).

================================================================================
                                        WARNINGS
                       Please study these warnings very carefully!
================================================================================


WARNING: your system is open-shell and RHF/RKS was chosen
  ===> : WILL SWITCH to UHF/UKS


WARNING: Geometry Optimization
  ===> : Switching off AutoStart
         For restart on a previous wavefunction, please use MOREAD

================================================================================
                                       INPUT FILE
================================================================================
NAME = rf_mecn_opt_B3L_C5_P_B.inp
|  1> !B3LYP def2-TZVP opt d3 TightSCF SlowConv defgrid2
|  2>  
|  3> %pal
|  4> nprocs 20
|  5> end
|  6>  
|  7> %scf
|  8> MaxIter 1500
|  9> end
| 10>  
| 11> %maxcore 8000
| 12>  
| 13> !CPCM
| 14> %cpcm smd true
| 15> SMDsolvent "ACETONITRILE"
| 16> end
| 17>  
| 18> * xyz 0 2
| 19> 6        4.790427000     -0.033865800     -0.529943200
| 20> 8        5.449345000     -1.206924000     -0.894594600
| 21> 8        4.978223000      1.323071000     -0.737377200
| 22> 6        3.506687600     -0.338741600      0.376153800
| 23> 6        2.222300000      0.400524800     -0.110681600
| 24> 6        0.900506800     -0.386389800      0.175703000
| 25> 6       -0.395261200      0.487294000      0.065549000
| 26> 6       -1.705693600     -0.364773800     -0.068373600
| 27> 6       -3.005136200      0.445344800      0.258164000
| 28> 6       -4.319880200     -0.214526000     -0.270540800
| 29> 9        3.211587400     -1.692050400      0.412735200
| 30> 9        3.741061800      0.055285800      1.689948800
| 31> 9        2.125696800      1.616867800      0.483236600
| 32> 9        2.314152400      0.589704000     -1.455769200
| 33> 9        0.794028800     -1.413561400     -0.700839000
| 34> 9        0.958350600     -0.884509000      1.435093400
| 35> 9       -0.299075000      1.289512600     -1.020910800
| 36> 9       -1.641790400     -1.418189000      0.779523800
| 37> 9       -1.792381400     -0.831391600     -1.336863600
| 38> 9       -2.918792200      1.679227200     -0.295171200
| 39> 9       -3.119771000      0.573779800      1.598579800
| 40> 9       -4.383115600     -1.504377600      0.089127600
| 41> 9       -5.365669800      0.430528600      0.260394200
| 42> 9       -4.396020400     -0.128550600     -1.602941800
| 43> 1        5.903122371     -2.014774547     -1.145719253
| 44> *
| 45> 
| 46>                          ****END OF INPUT****
================================================================================

                       *****************************
                       * Geometry Optimization Run *
                       *****************************

Geometry optimization settings:
Update method            Update   .... BFGS
Choice of coordinates    CoordSys .... (2022) Redundant Internals
Initial Hessian          InHess   .... Almloef's Model
Max. no of cycles        MaxIter  .... 75

Convergence Tolerances:
Energy Change            TolE     ....  5.0000e-06 Eh
Max. Gradient            TolMAXG  ....  3.0000e-04 Eh/bohr
RMS Gradient             TolRMSG  ....  1.0000e-04 Eh/bohr
Max. Displacement        TolMAXD  ....  4.0000e-03 bohr
RMS Displacement         TolRMSD  ....  2.0000e-03 bohr
Strict Convergence                .... False

------------------------------------------------------------------------------
                        ORCA OPTIMIZATION COORDINATE SETUP
------------------------------------------------------------------------------

The optimization will be done in redundant internal coordinates (2022)
Making redundant internal coordinates   ...  (2022 redundants) done
Evaluating the initial hessian          ...  (Almloef) done
Evaluating the coordinates              ...  done
Calculating the B-matrix                .... done
Calculating the G-matrix                .... done
Diagonalizing the G-matrix              .... done
Small eigenvalue found = 4.627e-03
Small eigenvalue found = 1.286e-02
Small eigenvalue found = 2.876e-02
The first mode is                       ....   39
The number of degrees of freedom        ....   69

    -----------------------------------------------------------------
                    Redundant Internal Coordinates


    -----------------------------------------------------------------
         Definition                    Initial Value    Approx d2E/dq
    -----------------------------------------------------------------
      1. B(O   1,C   0)                  1.3940         0.551454   
      2. B(O   2,C   0)                  1.3855         0.568952   
      3. B(C   3,C   0)                  1.6006         0.288221   
      4. B(C   4,C   3)                  1.5599         0.334759   
      5. B(C   5,C   4)                  1.5647         0.328824   
      6. B(C   6,C   5)                  1.5667         0.326486   
      7. B(C   7,C   6)                  1.5688         0.323927   
      8. B(C   8,C   7)                  1.5657         0.327637   
      9. B(C   9,C   8)                  1.5632         0.330714   
     10. B(F  10,C   3)                  1.3856         0.528443   
     11. B(F  11,C   3)                  1.3915         0.517117   
     12. B(F  12,C   4)                  1.3570         0.586881   
     13. B(F  13,C   4)                  1.3614         0.577499   
     14. B(F  14,C   5)                  1.3545         0.592326   
     15. B(F  15,C   5)                  1.3556         0.590092   
     16. B(F  16,C   6)                  1.3540         0.593567   
     17. B(F  17,C   7)                  1.3538         0.593973   
     18. B(F  18,C   7)                  1.3544         0.592672   
     19. B(F  19,C   8)                  1.3550         0.591238   
     20. B(F  20,C   8)                  1.3514         0.599114   
     21. B(F  21,C   9)                  1.3406         0.623533   
     22. B(F  22,C   9)                  1.3385         0.628179   
     23. B(F  23,C   9)                  1.3373         0.630929   
     24. B(H  24,O   1)                  0.9600         0.519956   
     25. A(O   1,C   0,O   2)          136.1318         0.413163   
     26. A(O   1,C   0,C   3)          111.5249         0.369222   
     27. A(O   2,C   0,C   3)          112.3347         0.371210   
     28. L(C   0,O   1,H  24,C   3, 2) 180.0000         0.362759   
     29. L(C   0,O   1,H  24,C   3, 1) 180.0000         0.362759   
     30. A(F  10,C   3,F  11)          106.7094         0.399684   
     31. A(C   4,C   3,F  11)          107.4072         0.373095   
     32. A(C   0,C   3,F  11)          110.2099         0.363632   
     33. A(C   4,C   3,F  10)          107.2033         0.374492   
     34. A(C   0,C   3,F  10)          111.8265         0.364982   
     35. A(C   0,C   3,C   4)          113.1687         0.341363   
     36. A(C   3,C   4,F  12)          110.2926         0.381351   
     37. A(F  12,C   4,F  13)          108.2194         0.415201   
     38. A(C   3,C   4,C   5)          113.5839         0.349005   
     39. A(C   5,C   4,F  13)          107.9208         0.379109   
     40. A(C   3,C   4,F  13)          108.5818         0.380286   
     41. A(C   5,C   4,F  12)          108.0911         0.380169   
     42. A(C   4,C   5,C   6)          113.9128         0.347536   
     43. A(F  14,C   5,F  15)          109.0206         0.417483   
     44. A(C   6,C   5,F  15)          107.7906         0.380059   
     45. A(C   4,C   5,F  15)          108.5900         0.380529   
     46. A(C   6,C   5,F  14)          108.2026         0.380308   
     47. A(C   4,C   5,F  14)          109.2282         0.380779   
     48. A(C   5,C   6,C   7)          113.2023         0.346660   
     49. A(C   7,C   6,F  16)          108.2186         0.379927   
     50. A(C   5,C   6,F  16)          109.1523         0.380446   
     51. A(C   8,C   7,F  18)          108.6915         0.380579   
     52. A(C   6,C   7,F  18)          108.6955         0.379828   
     53. A(C   8,C   7,F  17)          108.1296         0.380723   
     54. A(F  17,C   7,F  18)          108.7561         0.418014   
     55. A(C   6,C   7,F  17)          109.2524         0.379972   
     56. A(C   6,C   7,C   8)          113.2298         0.346865   
     57. A(F  19,C   8,F  20)          108.8987         0.418476   
     58. A(C   7,C   8,C   9)          114.1471         0.348078   
     59. A(C   9,C   8,F  20)          107.7127         0.381912   
     60. A(C   7,C   8,F  20)          109.0521         0.381293   
     61. A(C   9,C   8,F  19)          107.4499         0.381036   
     62. A(C   7,C   8,F  19)          109.4572         0.380419   
     63. A(F  22,C   9,F  23)          108.6464         0.426961   
     64. A(F  21,C   9,F  23)          109.0552         0.426394   
     65. A(C   8,C   9,F  23)          110.9604         0.385362   
     66. A(F  21,C   9,F  22)          108.6877         0.426061   
     67. A(C   8,C   9,F  22)          108.6349         0.385069   
     68. A(C   8,C   9,F  21)          110.7995         0.384572   
     69. D(F  10,C   3,C   0,O   1)     -9.8890         0.006601   
     70. D(F  11,C   3,C   0,O   1)    108.6317         0.006601   
     71. D(F  10,C   3,C   0,O   2)    171.0025         0.006601   
     72. D(F  11,C   3,C   0,O   2)    -70.4768         0.006601   
     73. D(C   4,C   3,C   0,O   1)   -131.0839         0.006601   
     74. D(C   4,C   3,C   0,O   2)     49.8076         0.006601   
     75. D(C   5,C   4,C   3,C   0)    148.6429         0.009100   
     76. D(F  12,C   4,C   3,F  11)     32.0233         0.009100   
     77. D(F  12,C   4,C   3,F  10)    146.3851         0.009100   
     78. D(F  12,C   4,C   3,C   0)    -89.8453         0.009100   
     79. D(C   5,C   4,C   3,F  11)    -89.4885         0.009100   
     80. D(C   5,C   4,C   3,F  10)     24.8733         0.009100   
     81. D(C   6,C   5,C   4,F  13)    -75.6292         0.008811   
     82. D(C   6,C   5,C   4,F  12)     41.2001         0.008811   
     83. D(C   6,C   5,C   4,C   3)    163.9326         0.008811   
     84. D(F  14,C   5,C   4,F  13)     45.4721         0.008811   
     85. D(F  14,C   5,C   4,F  12)    162.3014         0.008811   
     86. D(F  14,C   5,C   4,C   3)    -74.9661         0.008811   
     87. D(F  16,C   6,C   5,C   4)     42.3872         0.008172   
     88. D(C   7,C   6,C   5,F  15)    -76.4529         0.008172   
     89. D(C   7,C   6,C   5,F  14)     41.3107         0.008172   
     90. D(F  16,C   6,C   5,F  14)    -79.2837         0.008172   
     91. D(C   7,C   6,C   5,C   4)    162.9815         0.008172   
     92. D(F  18,C   7,C   6,C   5)    -76.7446         0.008059   
     93. D(F  17,C   7,C   6,F  16)    162.9167         0.008059   
     94. D(F  17,C   7,C   6,C   5)     41.7939         0.008059   
     95. D(C   8,C   7,C   6,F  16)    -76.5134         0.008059   
     96. D(C   8,C   7,C   6,C   5)    162.3638         0.008059   
     97. D(C   9,C   8,C   7,F  18)     41.5227         0.008755   
     98. D(C   9,C   8,C   7,F  17)    -76.3785         0.008755   
     99. D(C   9,C   8,C   7,C   6)    162.4166         0.008755   
    100. D(F  19,C   8,C   7,F  18)    -78.9355         0.008755   
    101. D(F  19,C   8,C   7,F  17)    163.1633         0.008755   
    102. D(F  19,C   8,C   7,C   6)     41.9584         0.008755   
    103. D(F  22,C   9,C   8,F  20)     48.1091         0.008903   
    104. D(F  22,C   9,C   8,F  19)    -69.0724         0.008903   
    105. D(F  22,C   9,C   8,C   7)    169.3552         0.008903   
    106. D(F  21,C   9,C   8,F  20)    -71.2185         0.008903   
    107. D(F  21,C   9,C   8,F  19)    171.5999         0.008903   
    108. D(F  21,C   9,C   8,C   7)     50.0276         0.008903   
    -----------------------------------------------------------------

Number of atoms                         .... 25
Number of degrees of freedom            .... 108


         *************************************************************
         *                GEOMETRY OPTIMIZATION CYCLE   1            *
         *************************************************************
---------------------------------
CARTESIAN COORDINATES (ANGSTROEM)
---------------------------------
  C      4.790427   -0.033866   -0.529943
  O      5.449345   -1.206924   -0.894595
  O      4.978223    1.323071   -0.737377
  C      3.506688   -0.338742    0.376154
  C      2.222300    0.400525   -0.110682
  C      0.900507   -0.386390    0.175703
  C     -0.395261    0.487294    0.065549
  C     -1.705694   -0.364774   -0.068374
  C     -3.005136    0.445345    0.258164
  C     -4.319880   -0.214526   -0.270541
  F      3.211587   -1.692050    0.412735
  F      3.741062    0.055286    1.689949
  F      2.125697    1.616868    0.483237
  F      2.314152    0.589704   -1.455769
  F      0.794029   -1.413561   -0.700839
  F      0.958351   -0.884509    1.435093
  F     -0.299075    1.289513   -1.020911
  F     -1.641790   -1.418189    0.779524
  F     -1.792381   -0.831392   -1.336864
  F     -2.918792    1.679227   -0.295171
  F     -3.119771    0.573780    1.598580
  F     -4.383116   -1.504378    0.089128
  F     -5.365670    0.430529    0.260394
  F     -4.396020   -0.128551   -1.602942
  H      5.903122   -2.014775   -1.145719

----------------------------
CARTESIAN COORDINATES (A.U.)
----------------------------
  NO LB      ZA    FRAG     MASS         X           Y           Z
   0 C     6.0000    0    12.011    9.052595   -0.063997   -1.001448
   1 O     8.0000    0    15.999   10.297770   -2.280756   -1.690539
   2 O     8.0000    0    15.999    9.407478    2.500242   -1.393441
   3 C     6.0000    0    12.011    6.626679   -0.640129    0.710828
   4 C     6.0000    0    12.011    4.199538    0.756882   -0.209158
   5 C     6.0000    0    12.011    1.701711   -0.730171    0.332031
   6 C     6.0000    0    12.011   -0.746935    0.920852    0.123870
   7 C     6.0000    0    12.011   -3.223294   -0.689323   -0.129207
   8 C     6.0000    0    12.011   -5.678884    0.841580    0.487859
   9 C     6.0000    0    12.011   -8.163391   -0.405395   -0.511248
  10 F     9.0000    0    18.998    6.069021   -3.197512    0.779956
  11 F     9.0000    0    18.998    7.069582    0.104475    3.193540
  12 F     9.0000    0    18.998    4.016985    3.055437    0.913185
  13 F     9.0000    0    18.998    4.373114    1.114379   -2.751005
  14 F     9.0000    0    18.998    1.500497   -2.671244   -1.324394
  15 F     9.0000    0    18.998    1.811020   -1.671480    2.711934
  16 F     9.0000    0    18.998   -0.565170    2.436826   -1.929242
  17 F     9.0000    0    18.998   -3.102534   -2.679989    1.473086
  18 F     9.0000    0    18.998   -3.387110   -1.571102   -2.526306
  19 F     9.0000    0    18.998   -5.515718    3.173280   -0.557793
  20 F     9.0000    0    18.998   -5.895513    1.084287    3.020878
  21 F     9.0000    0    18.998   -8.282888   -2.842862    0.168427
  22 F     9.0000    0    18.998  -10.139646    0.813581    0.492074
  23 F     9.0000    0    18.998   -8.307275   -0.242925   -3.029121
  24 H     1.0000    0     1.008   11.155285   -3.807372   -2.165096

--------------------------------
INTERNAL COORDINATES (ANGSTROEM)
--------------------------------
 C      0   0   0     0.000000000000     0.00000000     0.00000000
 O      1   0   0     1.393990356793     0.00000000     0.00000000
 O      1   2   0     1.385486802956   136.13177198     0.00000000
 C      1   2   3     1.600608594862   111.52489317   181.18992567
 C      4   1   2     1.559863783763   113.16872737   228.91614990
 C      5   4   1     1.564732561934   113.58394786   148.64287440
 C      6   5   4     1.566675459667   113.91280616   163.93256239
 C      7   6   5     1.568817348692   113.20226571   162.98152714
 C      8   7   6     1.565717094808   113.22984595   162.36375422
 C      9   8   7     1.563173062643   114.14707705   162.41661495
 F      4   1   2     1.385592665621   111.82651119   350.11101305
 F      4   1   2     1.391490625050   110.20991618   108.63170802
 F      5   4   1     1.357041377479   110.29260564   270.15468021
 F      5   4   1     1.361428031433   108.58179722    28.57841973
 F      6   5   4     1.354527570075   109.22822656   285.03385927
 F      6   5   4     1.355556277776   108.59004089    43.81583148
 F      7   6   5     1.353957667090   109.15230848    42.38718856
 F      8   7   6     1.353771473879   109.25240264    41.79387651
 F      8   7   6     1.354368423305   108.69554158   283.25540020
 F      9   8   7     1.355028009646   109.45719767    41.95842364
 F      9   8   7     1.351425618925   109.05210362   282.91820052
 F     10   9   8     1.340551089588   110.79953142    50.02756898
 F     10   9   8     1.338530275591   108.63493714   169.35523750
 F     10   9   8     1.337341214598   110.96044107   288.72891896
 H      2   1   3     0.960000000033   180.00000000     0.00000000

---------------------------
INTERNAL COORDINATES (A.U.)
---------------------------
 C      0   0   0     0.000000000000     0.00000000     0.00000000
 O      1   0   0     2.634260007667     0.00000000     0.00000000
 O      1   2   0     2.618190619750   136.13177198     0.00000000
 C      1   2   3     3.024711891890   111.52489317   181.18992567
 C      4   1   2     2.947715357535   113.16872737   228.91614990
 C      5   4   1     2.956916014884   113.58394786   148.64287440
 C      6   5   4     2.960587559506   113.91280616   163.93256239
 C      7   6   5     2.964635143173   113.20226571   162.98152714
 C      8   7   6     2.958776512386   113.22984595   162.36375422
 C      9   8   7     2.953968988318   114.14707705   162.41661495
 F      4   1   2     2.618390671194   111.82651119   350.11101305
 F      4   1   2     2.629536199263   110.20991618   108.63170802
 F      5   4   1     2.564436555835   110.29260564   270.15468021
 F      5   4   1     2.572726130452   108.58179722    28.57841973
 F      6   5   4     2.559686148288   109.22822656   285.03385927
 F      6   5   4     2.561630124115   108.59004089    43.81583148
 F      7   6   5     2.558609187723   109.15230848    42.38718856
 F      8   7   6     2.558257333546   109.25240264    41.79387651
 F      8   7   6     2.559385404477   108.69554158   283.25540020
 F      9   8   7     2.560631842023   109.45719767    41.95842364
 F      9   8   7     2.553824310132   109.05210362   282.91820052
 F     10   9   8     2.533274427850   110.79953142    50.02756898
 F     10   9   8     2.529455642830   108.63493714   169.35523750
 F     10   9   8     2.527208643196   110.96044107   288.72891896
 H      2   1   3     1.814137088628   180.00000000     0.00000000

---------------------
BASIS SET INFORMATION
---------------------
There are 4 groups of distinct atoms

 Group   1 Type C   : 11s6p2d1f contracted to 5s3p2d1f pattern {62111/411/11/1}
 Group   2 Type O   : 11s6p2d1f contracted to 5s3p2d1f pattern {62111/411/11/1}
 Group   3 Type F   : 11s6p2d1f contracted to 5s3p2d1f pattern {62111/411/11/1}
 Group   4 Type H   : 5s1p contracted to 3s1p pattern {311/1}

Atom   0C    basis set group =>   1
Atom   1O    basis set group =>   2
Atom   2O    basis set group =>   2
Atom   3C    basis set group =>   1
Atom   4C    basis set group =>   1
Atom   5C    basis set group =>   1
Atom   6C    basis set group =>   1
Atom   7C    basis set group =>   1
Atom   8C    basis set group =>   1
Atom   9C    basis set group =>   1
Atom  10F    basis set group =>   3
Atom  11F    basis set group =>   3
Atom  12F    basis set group =>   3
Atom  13F    basis set group =>   3
Atom  14F    basis set group =>   3
Atom  15F    basis set group =>   3
Atom  16F    basis set group =>   3
Atom  17F    basis set group =>   3
Atom  18F    basis set group =>   3
Atom  19F    basis set group =>   3
Atom  20F    basis set group =>   3
Atom  21F    basis set group =>   3
Atom  22F    basis set group =>   3
Atom  23F    basis set group =>   3
Atom  24H    basis set group =>   4
---------------------------------
AUXILIARY/J BASIS SET INFORMATION
---------------------------------
There are 4 groups of distinct atoms

 Group   1 Type C   : 12s5p4d2f1g contracted to 6s4p3d1f1g pattern {711111/2111/211/2/1}
 Group   2 Type O   : 12s5p4d2f1g contracted to 6s4p3d1f1g pattern {711111/2111/211/2/1}
 Group   3 Type F   : 12s5p4d2f1g contracted to 6s4p3d1f1g pattern {711111/2111/211/2/1}
 Group   4 Type H   : 5s2p1d contracted to 3s1p1d pattern {311/2/1}

Atom   0C    basis set group =>   1
Atom   1O    basis set group =>   2
Atom   2O    basis set group =>   2
Atom   3C    basis set group =>   1
Atom   4C    basis set group =>   1
Atom   5C    basis set group =>   1
Atom   6C    basis set group =>   1
Atom   7C    basis set group =>   1
Atom   8C    basis set group =>   1
Atom   9C    basis set group =>   1
Atom  10F    basis set group =>   3
Atom  11F    basis set group =>   3
Atom  12F    basis set group =>   3
Atom  13F    basis set group =>   3
Atom  14F    basis set group =>   3
Atom  15F    basis set group =>   3
Atom  16F    basis set group =>   3
Atom  17F    basis set group =>   3
Atom  18F    basis set group =>   3
Atom  19F    basis set group =>   3
Atom  20F    basis set group =>   3
Atom  21F    basis set group =>   3
Atom  22F    basis set group =>   3
Atom  23F    basis set group =>   3
Atom  24H    basis set group =>   4


           ************************************************************
           *        Program running with 20 parallel MPI-processes    *
           *              working on a common directory               *
           ************************************************************
------------------------------------------------------------------------------
                             ORCA STARTUP CALCULATIONS
                           -- RI-GTO INTEGRALS CHOSEN --
------------------------------------------------------------------------------
------------------------------------------------------------------------------
                   ___                                                        
                  /   \      - P O W E R E D   B Y -                         
                 /     \                                                     
                 |  |  |   _    _      __       _____    __    __             
                 |  |  |  | |  | |    /  \     |  _  \  |  |  /  |          
                  \  \/   | |  | |   /    \    | | | |  |  | /  /          
                 / \  \   | |__| |  /  /\  \   | |_| |  |  |/  /          
                |  |  |   |  __  | /  /__\  \  |    /   |      \           
                |  |  |   | |  | | |   __   |  |    \   |  |\   \          
                \     /   | |  | | |  |  |  |  | |\  \  |  | \   \       
                 \___/    |_|  |_| |__|  |__|  |_| \__\ |__|  \__/        
                                                                              
                      - O R C A' S   B I G   F R I E N D -                    
                                      &                                       
                       - I N T E G R A L  F E E D E R -                       
                                                                              
 v1 FN, 2020, v2 2021, v3 2022-2024                                           
------------------------------------------------------------------------------


----------------------
SHARK INTEGRAL PACKAGE
----------------------

Number of atoms                             ...     25
Number of basis functions                   ...    750
Number of shells                            ...    268
Maximum angular momentum                    ...      3
Integral batch strategy                     ... SHARK/LIBINT Hybrid
RI-J (if used) integral strategy            ... SPLIT-RIJ (Revised 2003 algorithm where possible)
Printlevel                                  ...      1
Contraction scheme used                     ... SEGMENTED contraction
Prescreening option                         ... SCHWARTZ
   Thresh                                   ... 2.500e-11
   Tcut                                     ... 2.500e-12
   Tpresel                                  ... 2.500e-12 
Coulomb Range Separation                    ... NOT USED
Exchange Range Separation                   ... NOT USED
Multipole approximations                    ... NOT USED
Finite Nucleus Model                        ... NOT USED
CABS basis                                  ... NOT available
Auxiliary Coulomb fitting basis             ... AVAILABLE
   # of basis functions in Aux-J            ...   1187
   # of shells in Aux-J                     ...    365
   Maximum angular momentum in Aux-J        ...      4
Auxiliary J/K fitting basis                 ... NOT available
Auxiliary Correlation fitting basis         ... NOT available
Auxiliary 'external' fitting basis          ... NOT available

Checking pre-screening integrals            ... done (  0.0 sec) Dimension = 268
Check shell pair data                       ... done (  0.0 sec)
Shell pair information
Shell pair cut-off parameter TPreSel        ...   2.5e-12
Total number of shell pairs                 ...     36046
Shell pairs after pre-screening             ...     21880
Total number of primitive shell pairs       ...    118872
Primitive shell pairs kept                  ...     46445
          la=0 lb=0:   4176 shell pairs
          la=1 lb=0:   5973 shell pairs
          la=1 lb=1:   2067 shell pairs
          la=2 lb=0:   3244 shell pairs
          la=2 lb=1:   2375 shell pairs
          la=2 lb=2:    671 shell pairs
          la=3 lb=0:   1475 shell pairs
          la=3 lb=1:   1140 shell pairs
          la=3 lb=2:    611 shell pairs
          la=3 lb=3:    148 shell pairs

Calculating one electron integrals          ... done (  0.0 sec)
Calculating RI/J V-Matrix + Cholesky decomp.... done (  0.1 sec)
Calculating Nuclear repulsion               ... done (  0.0 sec) ENN=   2610.863627261027 Eh

Diagonalization of the overlap matrix:
Smallest eigenvalue                        ... 6.750e-05
Time for diagonalization                   ...    0.116 sec
Threshold for overlap eigenvalues          ... 1.000e-07
Number of eigenvalues below threshold      ... 0
Time for construction of square roots      ...    0.058 sec
Total time needed                          ...    0.179 sec

-------------------
DFT GRID GENERATION
-------------------

General Integration Accuracy     IntAcc      ... 4.388
Radial Grid Type                 RadialGrid  ... OptM3 with GC (2021)
Angular Grid (max. ang.)         AngularGrid ... 4 (Lebedev-302)
Angular grid pruning method      GridPruning ... 4 (adaptive)
Weight generation scheme         WeightScheme... mBecke (2022)
Basis function cutoff            BFCut       ... 1.0000e-11
Integration weight cutoff        WCut        ... 1.0000e-14
Partially contracted basis set               ... off
Rotationally invariant grid construction     ... off
Angular grids for H and He will be reduced by one unit

Total number of grid points                  ...   148757
Total number of batches                      ...     2334
Average number of points per batch           ...       63
Average number of grid points per atom       ...     5950

--------------------
COSX GRID GENERATION
--------------------

GRIDX 1
-------
General Integration Accuracy     IntAcc      ... 3.816
Radial Grid Type                 RadialGrid  ... OptM3 with GC (2021)
Angular Grid (max. ang.)         AngularGrid ... 1 (Lebedev-50)
Angular grid pruning method      GridPruning ... 4 (adaptive)
Weight generation scheme         WeightScheme... mBecke (2022)
Basis function cutoff            BFCut       ... 1.0000e-11
Integration weight cutoff        WCut        ... 1.0000e-14
Partially contracted basis set               ... on
Rotationally invariant grid construction     ... off
Angular grids for H and He will be reduced by one unit

Total number of grid points                  ...    18718
Total number of batches                      ...      158
Average number of points per batch           ...      118
Average number of grid points per atom       ...      749
UseSFitting                                  ... on

GRIDX 2
-------
General Integration Accuracy     IntAcc      ... 4.020
Radial Grid Type                 RadialGrid  ... OptM3 with GC (2021)
Angular Grid (max. ang.)         AngularGrid ... 2 (Lebedev-110)
Angular grid pruning method      GridPruning ... 4 (adaptive)
Weight generation scheme         WeightScheme... mBecke (2022)
Basis function cutoff            BFCut       ... 1.0000e-11
Integration weight cutoff        WCut        ... 1.0000e-14
Partially contracted basis set               ... on
Rotationally invariant grid construction     ... off
Angular grids for H and He will be reduced by one unit

Total number of grid points                  ...    44130
Total number of batches                      ...      360
Average number of points per batch           ...      122
Average number of grid points per atom       ...     1765
UseSFitting                                  ... on

GRIDX 3
-------
General Integration Accuracy     IntAcc      ... 4.338
Radial Grid Type                 RadialGrid  ... OptM3 with GC (2021)
Angular Grid (max. ang.)         AngularGrid ... 3 (Lebedev-194)
Angular grid pruning method      GridPruning ... 4 (adaptive)
Weight generation scheme         WeightScheme... mBecke (2022)
Basis function cutoff            BFCut       ... 1.0000e-11
Integration weight cutoff        WCut        ... 1.0000e-14
Partially contracted basis set               ... on
Rotationally invariant grid construction     ... off
Angular grids for H and He will be reduced by one unit

Total number of grid points                  ...    97719
Total number of batches                      ...      772
Average number of points per batch           ...      126
Average number of grid points per atom       ...     3909
UseSFitting                                  ... on
Initializing property integral containers    ... done (  0.0 sec)

SHARK setup successfully completed in   3.8 seconds

Maximum memory used throughout the entire STARTUP-calculation: 56.7 MB


           ************************************************************
           *        Program running with 20 parallel MPI-processes    *
           *              working on a common directory               *
           ************************************************************
-------------------------------------------------------------------------------
                                 ORCA GUESS
                   Start orbitals & Density for SCF / CASSCF
-------------------------------------------------------------------------------

------------
SCF SETTINGS
------------
Hamiltonian:
 Density Functional     Method          .... DFT(GTOs)
 Exchange Functional    Exchange        .... B88
   X-Alpha parameter    XAlpha          ....  0.666667
   Becke's b parameter  XBeta           ....  0.004200
 Correlation Functional Correlation     .... LYP
 LDA part of GGA corr.  LDAOpt          .... VWN-5
 Gradients option       PostSCFGGA      .... off
 Hybrid DFT is turned on
   Fraction HF Exchange ScalHFX         ....  0.200000
   Scaling of DF-GGA-X  ScalDFX         ....  0.720000
   Scaling of DF-GGA-C  ScalDFC         ....  0.810000
   Scaling of DF-LDA-C  ScalLDAC        ....  1.000000
   Perturbative correction              ....  0.000000
   NL short-range parameter             ....  4.800000
 RI-approximation to the Coulomb term is turned on
   Number of AuxJ basis functions       .... 1187
   RIJ-COSX (HFX calculated with COS-X)).... on


General Settings:
 Integral files         IntName         .... rf_mecn_opt_B3L_C5_P_B
 Hartree-Fock type      HFTyp           .... UHF
 Total Charge           Charge          ....    0
 Multiplicity           Mult            ....    2
 Number of Electrons    NEL             ....  191
 Basis Dimension        Dim             ....  750
 Nuclear Repulsion      ENuc            ....   2610.8636272610 Eh

Convergence Acceleration:
 AO-DIIS                CNVDIIS         .... on
   Start iteration      DIISMaxIt       ....     0
   Startup error        DIISStart       ....  0.200000
   # of expansion vecs  DIISMaxEq       ....     5
   Bias factor          DIISBfac        ....   1.050
   Max. coefficient     DIISMaxC        ....  10.000
 MO-DIIS                CNVKDIIS        .... off
 Trust-Rad. Augm. Hess. CNVTRAH         .... auto
   Auto Start mean grad. ratio tolernc. ....  1.125000
   Auto Start start iteration           ....    50
   Auto Start num. interpolation iter.  ....    10
   Max. Number of Micro iterations      ....    24
   Max. Number of Macro iterations      .... Maxiter - #DIIS iter
   Number of Davidson start vectors     ....     2
   Converg. threshold    (grad. norm)   ....   1.000e-05
   Grad. Scal. Fac. for Micro threshold ....   0.100
   Minimum threshold for Micro iter.    ....   1.000e-02
   NR start threshold (gradient norm)   ....   1.000e-04
   Initial trust radius                 ....   0.400
   Minimum AH scaling param. (alpha)    ....   1.000
   Maximum AH scaling param. (alpha)    .... 1000.000
   Quad. conv. algorithm                .... NR
   White noise on init. David. guess    .... on
   Maximum white noise                  ....   0.010
   Pseudo random numbers                .... off
   Inactive MOs                         .... canonical
   Orbital update algorithm             .... Taylor
   Preconditioner                       .... Diag
   Full preconditioner red. dimension   ....   250
 SOSCF                  CNVSOSCF        .... on
   Start iteration      SOSCFMaxIt      ....   150
   Startup grad/error   SOSCFStart      ....  0.001000
   Hessian update       SOSCFHessUp     .... L-BFGS
 Level Shifting         CNVShift        .... on
   Level shift para.    LevelShift      ....    0.2500
   Turn off err/grad.   ShiftErr        ....    0.0000
 Zerner damping         CNVZerner       .... off
 Static damping         CNVDamp         .... on
   Fraction old density DampFac         ....    0.8500
   Max. Damping (<1)    DampMax         ....    0.9800
   Min. Damping (>=0)   DampMin         ....    0.0000
   Turn off err/grad.   DampErr         ....    0.0300

SCF Procedure:
 Maximum # iterations   MaxIter         ....  1500
 SCF integral mode      SCFMode         .... Direct
   Integral package                     .... SHARK and LIBINT hybrid scheme
 Reset frequency        DirectResetFreq ....    20
 Integral Threshold     Thresh          ....  2.500e-11 Eh
 Primitive CutOff       TCut            ....  2.500e-12 Eh

Convergence Tolerance:
 Convergence Check Mode ConvCheckMode   .... Total+1el-Energy
 Convergence forced     ConvForced      .... 0
 Energy Change          TolE            ....  1.000e-08 Eh
 1-El. energy change                    ....  1.000e-05 Eh
 Orbital Gradient       TolG            ....  1.000e-05
 Orbital Rotation angle TolX            ....  1.000e-05
 DIIS Error             TolErr          ....  5.000e-07

------------------------------
INITIAL GUESS: MODEL POTENTIAL
------------------------------
Loading Hartree-Fock densities                     ... done
Calculating cut-offs                               ... done
Initializing the effective Hamiltonian             ... done
Setting up the integral package (SHARK)            ... done
Starting the Coulomb interaction                   ... done (   0.2 sec)
Making the grid                                    ... done (   0.4 sec)
Mapping shells                                     ... done
Starting the XC term evaluation                    ... done (   0.2 sec)
  promolecular density results
     # of electrons  =    190.999588269
     EX              =   -198.447563351
     EC              =     -7.161152699
     EX+EC           =   -205.608716049
Transforming the Hamiltonian                       ... done (   0.1 sec)
Diagonalizing the Hamiltonian                      ... done (   0.1 sec)
Back transforming the eigenvectors                 ... done (   0.0 sec)
Now organizing SCF variables                       ... done
                      ------------------
                      INITIAL GUESS DONE (   1.1 sec)
                      ------------------
             **** ENERGY FILE WAS UPDATED (rf_mecn_opt_B3L_C5_P_B.en.tmp) ****
Finished Guess after   1.9 sec
Maximum memory used throughout the entire GUESS-calculation: 45.6 MB


           ************************************************************
           *        Program running with 20 parallel MPI-processes    *
           *              working on a common directory               *
           ************************************************************

-------------------------------------------------------------------------------------------
                                      ORCA LEAN-SCF
                              memory conserving SCF solver
-------------------------------------------------------------------------------------------

--------------------
CPCM SOLVATION MODEL
--------------------
CPCM parameters:
  Epsilon                                         ...      35.6880
  Refrac                                          ...       1.3442
  Rsolv                                           ...       1.3000
  Surface type                                    ... GAUSSIAN VDW
  Discretization scheme                           ... Constant charge density
    Threshold for H atoms                         ...       5.0000 (charges/Ang^2)
    Threshold for non-H atoms                     ...       5.0000 (charges/Ang^2)
  Epsilon function type                           ...         CPCM
Solvent:                                          ... ACETONITRILE
SMD-CDS solvent descriptors:
  Soln                                            ...       1.3442
  Soln25                                          ...       1.3416
  Sola                                            ...       0.0700
  Solb                                            ...       0.3200
  Solg                                            ...      41.2500
  Solc                                            ...       0.0000
  Solh                                            ...       0.0000
Radii:
  Scheme                                          ... Element-dependent radii
  Radius for C  used is    3.4960 Bohr (=   1.8500 Ang.)
  Radius for O  used is    4.0969 Bohr (=   2.1680 Ang.)
  Radius for F  used is    3.2692 Bohr (=   1.7300 Ang.)
  Radius for H  used is    2.2677 Bohr (=   1.2000 Ang.)
Calculating surface                               ...        done! (  0.0s)
Cavity surface points                             ...         2172
Cavity Volume                                     ...    2133.8459
Cavity Surface-area                               ...    1120.6189
Calculating surface distance matrix               ...        done! (  0.0s)
Performing Cholesky decomposition & store         ...        done! (  0.1s)
Overall time for CPCM initialization              ...                 0.1s

----------------------------------------D-I-I-S--------------------------------------------
Iteration    Energy (Eh)           Delta-E    RMSDP     MaxDP     DIISErr   Damp  Time(sec)
-------------------------------------------------------------------------------------------
               ***  Starting incremental Fock matrix formation  ***
    1    -1853.0531800676326384     0.00e+00  2.17e-04  1.71e-02  1.57e-01  0.850   7.2
Warning: op=1 Small HOMO/LUMO gap (   0.048) - skipping pre-diagonalization
         Will do a full diagonalization
    2    -1853.2254921691965137    -1.72e-01  2.07e-04  1.55e-02  9.71e-02  0.850   5.1
                               ***Turning on AO-DIIS***
    3    -1853.3120646078596110    -8.66e-02  8.64e-05  4.86e-03  5.55e-02  0.850   4.5
    4    -1853.3632315979857594    -5.12e-02  4.92e-05  4.36e-03  4.00e-02  0.850   4.0
    5    -1853.3994813257195347    -3.62e-02  3.69e-05  4.71e-03  3.29e-02  0.850   4.0
    6    -1853.4283799079385062    -2.89e-02  3.23e-05  4.62e-03  2.98e-02  0.850   3.9
    7    -1853.4526742713451313    -2.43e-02  2.05e-04  2.94e-02  2.52e-02  0.000   3.8
    8    -1853.5806519083189414    -1.28e-01  5.62e-05  8.28e-03  1.44e-02  0.000   4.1
    9    -1853.5808205177027048    -1.69e-04  2.04e-05  2.81e-03  1.30e-02  0.000   3.8
   10    -1853.5818427414433245    -1.02e-03  8.54e-06  7.52e-04  3.36e-03  0.000   3.8
                              *** Initializing SOSCF ***
---------------------------------------S-O-S-C-F--------------------------------------
Iteration    Energy (Eh)           Delta-E    RMSDP     MaxDP     MaxGrad    Time(sec)
--------------------------------------------------------------------------------------
   11    -1853.5819282246020521    -8.55e-05  3.68e-06  3.89e-04  8.85e-04     4.0
               *** Restarting incremental Fock matrix formation ***
   12    -1853.5819562967035381    -2.81e-05  2.83e-06  1.95e-04  1.48e-04     6.8
   13    -1853.5819567241114783    -4.27e-07  1.59e-06  1.19e-04  2.45e-04     4.8
   14    -1853.5819579169819917    -1.19e-06  9.62e-07  1.09e-04  8.62e-05     4.3
   15    -1853.5819576628646246     2.54e-07  6.92e-07  6.65e-05  2.26e-04     4.2
   16    -1853.5819580349270836    -3.72e-07  3.77e-07  2.92e-05  2.34e-05     3.8
   17    -1853.5819580441520884    -9.23e-09  1.74e-07  1.27e-05  1.79e-05     3.8
                 **** Energy Check signals convergence ****

               *****************************************************
               *                     SUCCESS                       *
               *           SCF CONVERGED AFTER  17 CYCLES          *
               *****************************************************

Recomputing exchange energy using gridx3       ... done (    8.914 sec)
Old exchange energy                            :    -39.748807104 Eh
New exchange energy                            :    -39.748823434 Eh
Exchange energy change after final integration :     -0.000016330 Eh
Total energy after final integration           :  -1853.581974374 Eh

SMD CDS free energy correction energy :                 3.65834     Kcal/mol
Total Energy after SMD CDS correction =             -1853.576144435 Eh
             **** ENERGY FILE WAS UPDATED (rf_mecn_opt_B3L_C5_P_B.en.tmp) ****

----------------
TOTAL SCF ENERGY
----------------

Total Energy       :      -1853.57614443490365 Eh          -50438.37113 eV

Components:
Nuclear Repulsion  :       2610.86362726102743 Eh           71045.21117 eV
Electronic Energy  :      -4464.42774744138205 Eh         -121483.25510 eV
One Electron Energy:      -7773.25095222418440 Eh         -211520.91193 eV
Two Electron Energy:       3308.82320478280235 Eh           90037.65683 eV
CPCM Dielectric    :         -0.01783786379775 Eh              -0.48539 eV
SMD CDS (Gcds)     :          0.00582993876917 Eh               0.15864 eV

Virial components:
Potential Energy   :      -3699.66469707220040 Eh         -100672.99452 eV
Kinetic Energy     :       1846.08855263729674 Eh           50234.62340 eV
Virial Ratio       :          2.00405592233748

DFT components:
N(Alpha)           :       95.999985443121 electrons
N(Beta)            :       94.999973517851 electrons
N(Total)           :      190.999958960972 electrons
E(X)               :     -158.461354409403 Eh       
E(C)               :       -8.363479491104 Eh       
E(XC)              :     -166.824833900507 Eh       

CPCM Solvation Model Properties:
Surface-charge          :         -0.00941417231705
Corrected charge        :         -0.00000000000000
Outlying charge corr.   :          0.00000481760098 Eh               0.00013 eV
Free-energy (cav+disp)  :          0.00582993876917 Eh               0.15864 eV

---------------
SCF CONVERGENCE
---------------

  Last Energy change         ...    9.2250e-09  Tolerance :   1.0000e-08
  Last MAX-Density change    ...    1.2674e-05  Tolerance :   1.0000e-07
  Last RMS-Density change    ...    1.7363e-07  Tolerance :   5.0000e-09
  Last DIIS Error            ...    8.8516e-04  Tolerance :   5.0000e-07
  Last Orbital Gradient      ...    1.7875e-05  Tolerance :   1.0000e-05
  Last Orbital Rotation      ...    2.0995e-05  Tolerance :   1.0000e-05


----------------------
UHF SPIN CONTAMINATION
----------------------

Warning: in a DFT calculation there is little theoretical justification to 
         calculate <S**2> as in Hartree-Fock theory. We will do it anyways
         but you should keep in mind that the values have only limited relevance

Expectation value of <S**2>     :     0.753050
Ideal value S*(S+1) for S=0.5   :     0.750000
Deviation                       :     0.003050

----------------
ORBITAL ENERGIES
----------------
                 SPIN UP ORBITALS
  NO   OCC          E(Eh)            E(eV) 
   0   1.0000     -24.750147      -673.4858 
   1   1.0000     -24.745393      -673.3564 
   2   1.0000     -24.744520      -673.3326 
   3   1.0000     -24.743532      -673.3057 
   4   1.0000     -24.742773      -673.2851 
   5   1.0000     -24.742725      -673.2838 
   6   1.0000     -24.742528      -673.2784 
   7   1.0000     -24.740989      -673.2365 
   8   1.0000     -24.740925      -673.2348 
   9   1.0000     -24.739655      -673.2002 
  10   1.0000     -24.736962      -673.1270 
  11   1.0000     -24.735854      -673.0968 
  12   1.0000     -24.732295      -673.0000 
  13   1.0000     -24.732180      -672.9968 
  14   1.0000     -19.204139      -522.5712 
  15   1.0000     -19.172433      -521.7084 
  16   1.0000     -10.462283      -284.6932 
  17   1.0000     -10.410076      -283.2726 
  18   1.0000     -10.409212      -283.2491 
  19   1.0000     -10.407405      -283.1999 
  20   1.0000     -10.406382      -283.1721 
  21   1.0000     -10.406380      -283.1720 
  22   1.0000     -10.405798      -283.1562 
  23   1.0000     -10.344375      -281.4848 
  24   1.0000      -1.351009       -36.7628 
  25   1.0000      -1.322818       -35.9957 
  26   1.0000      -1.316165       -35.8147 
  27   1.0000      -1.304856       -35.5069 
  28   1.0000      -1.299504       -35.3613 
  29   1.0000      -1.286123       -34.9972 
  30   1.0000      -1.281933       -34.8832 
  31   1.0000      -1.264427       -34.4068 
  32   1.0000      -1.259489       -34.2724 
  33   1.0000      -1.255085       -34.1526 
  34   1.0000      -1.253707       -34.1151 
  35   1.0000      -1.248228       -33.9660 
  36   1.0000      -1.245100       -33.8809 
  37   1.0000      -1.231909       -33.5219 
  38   1.0000      -1.090257       -29.6674 
  39   1.0000      -1.003626       -27.3100 
  40   1.0000      -0.850289       -23.1375 
  41   1.0000      -0.833796       -22.6887 
  42   1.0000      -0.809796       -22.0357 
  43   1.0000      -0.773166       -21.0389 
  44   1.0000      -0.740401       -20.1473 
  45   1.0000      -0.710722       -19.3397 
  46   1.0000      -0.686468       -18.6797 
  47   1.0000      -0.671959       -18.2849 
  48   1.0000      -0.647270       -17.6131 
  49   1.0000      -0.639802       -17.4099 
  50   1.0000      -0.636554       -17.3215 
  51   1.0000      -0.630273       -17.1506 
  52   1.0000      -0.626818       -17.0566 
  53   1.0000      -0.621130       -16.9018 
  54   1.0000      -0.611920       -16.6512 
  55   1.0000      -0.610824       -16.6214 
  56   1.0000      -0.600466       -16.3395 
  57   1.0000      -0.596049       -16.2193 
  58   1.0000      -0.588116       -16.0035 
  59   1.0000      -0.582169       -15.8416 
  60   1.0000      -0.578441       -15.7402 
  61   1.0000      -0.570948       -15.5363 
  62   1.0000      -0.529424       -14.4064 
  63   1.0000      -0.512693       -13.9511 
  64   1.0000      -0.511033       -13.9059 
  65   1.0000      -0.507775       -13.8172 
  66   1.0000      -0.502506       -13.6739 
  67   1.0000      -0.501862       -13.6564 
  68   1.0000      -0.499637       -13.5958 
  69   1.0000      -0.495418       -13.4810 
  70   1.0000      -0.487573       -13.2675 
  71   1.0000      -0.484105       -13.1732 
  72   1.0000      -0.481009       -13.0889 
  73   1.0000      -0.479154       -13.0384 
  74   1.0000      -0.475887       -12.9495 
  75   1.0000      -0.470966       -12.8156 
  76   1.0000      -0.467516       -12.7218 
  77   1.0000      -0.462773       -12.5927 
  78   1.0000      -0.460228       -12.5234 
  79   1.0000      -0.459320       -12.4987 
  80   1.0000      -0.452472       -12.3124 
  81   1.0000      -0.450266       -12.2523 
  82   1.0000      -0.448275       -12.1982 
  83   1.0000      -0.445970       -12.1355 
  84   1.0000      -0.442334       -12.0365 
  85   1.0000      -0.440336       -11.9822 
  86   1.0000      -0.439708       -11.9651 
  87   1.0000      -0.436625       -11.8812 
  88   1.0000      -0.433063       -11.7843 
  89   1.0000      -0.419368       -11.4116 
  90   1.0000      -0.391080       -10.6418 
  91   1.0000      -0.367575       -10.0022 
  92   1.0000      -0.353350        -9.6151 
  93   1.0000      -0.344737        -9.3808 
  94   1.0000      -0.319780        -8.7017 
  95   1.0000      -0.306015        -8.3271 
  96   0.0000      -0.099272        -2.7013 
  97   0.0000      -0.023583        -0.6417 
  98   0.0000      -0.004135        -0.1125 
  99   0.0000       0.018904         0.5144 
 100   0.0000       0.026114         0.7106 
 101   0.0000       0.041941         1.1413 
 102   0.0000       0.073027         1.9872 
 103   0.0000       0.086089         2.3426 
 104   0.0000       0.096375         2.6225 
 105   0.0000       0.100921         2.7462 
 106   0.0000       0.109275         2.9735 

                 SPIN DOWN ORBITALS
  NO   OCC          E(Eh)            E(eV) 
   0   1.0000     -24.745899      -673.3701 
   1   1.0000     -24.745392      -673.3563 
   2   1.0000     -24.744516      -673.3325 
   3   1.0000     -24.743530      -673.3057 
   4   1.0000     -24.742739      -673.2841 
   5   1.0000     -24.742691      -673.2829 
   6   1.0000     -24.741503      -673.2505 
   7   1.0000     -24.740942      -673.2352 
   8   1.0000     -24.739570      -673.1979 
   9   1.0000     -24.739543      -673.1972 
  10   1.0000     -24.736958      -673.1269 
  11   1.0000     -24.735775      -673.0947 
  12   1.0000     -24.732297      -673.0000 
  13   1.0000     -24.732176      -672.9967 
  14   1.0000     -19.204140      -522.5712 
  15   1.0000     -19.172433      -521.7084 
  16   1.0000     -10.462294      -284.6935 
  17   1.0000     -10.409868      -283.2669 
  18   1.0000     -10.409217      -283.2492 
  19   1.0000     -10.407227      -283.1950 
  20   1.0000     -10.406386      -283.1721 
  21   1.0000     -10.406326      -283.1705 
  22   1.0000     -10.405842      -283.1573 
  23   1.0000     -10.328786      -281.0606 
  24   1.0000      -1.350975       -36.7619 
  25   1.0000      -1.321317       -35.9549 
  26   1.0000      -1.315620       -35.7999 
  27   1.0000      -1.304280       -35.4913 
  28   1.0000      -1.298552       -35.3354 
  29   1.0000      -1.285515       -34.9806 
  30   1.0000      -1.274161       -34.6717 
  31   1.0000      -1.264072       -34.3972 
  32   1.0000      -1.259481       -34.2722 
  33   1.0000      -1.254008       -34.1233 
  34   1.0000      -1.253055       -34.0974 
  35   1.0000      -1.247685       -33.9512 
  36   1.0000      -1.244249       -33.8577 
  37   1.0000      -1.231896       -33.5216 
  38   1.0000      -1.090260       -29.6675 
  39   1.0000      -1.003626       -27.3101 
  40   1.0000      -0.843024       -22.9398 
  41   1.0000      -0.833442       -22.6791 
  42   1.0000      -0.801955       -21.8223 
  43   1.0000      -0.771596       -20.9962 
  44   1.0000      -0.738167       -20.0866 
  45   1.0000      -0.708616       -19.2824 
  46   1.0000      -0.684923       -18.6377 
  47   1.0000      -0.668840       -18.2000 
  48   1.0000      -0.646010       -17.5788 
  49   1.0000      -0.637857       -17.3570 
  50   1.0000      -0.636208       -17.3121 
  51   1.0000      -0.629253       -17.1228 
  52   1.0000      -0.625516       -17.0212 
  53   1.0000      -0.619990       -16.8708 
  54   1.0000      -0.610800       -16.6207 
  55   1.0000      -0.609208       -16.5774 
  56   1.0000      -0.598425       -16.2840 
  57   1.0000      -0.594326       -16.1724 
  58   1.0000      -0.587325       -15.9819 
  59   1.0000      -0.577945       -15.7267 
  60   1.0000      -0.575786       -15.6679 
  61   1.0000      -0.569850       -15.5064 
  62   1.0000      -0.513983       -13.9862 
  63   1.0000      -0.510701       -13.8969 
  64   1.0000      -0.508589       -13.8394 
  65   1.0000      -0.506556       -13.7841 
  66   1.0000      -0.502155       -13.6643 
  67   1.0000      -0.500018       -13.6062 
  68   1.0000      -0.496445       -13.5090 
  69   1.0000      -0.493254       -13.4221 
  70   1.0000      -0.486800       -13.2465 
  71   1.0000      -0.483274       -13.1505 
  72   1.0000      -0.478169       -13.0116 
  73   1.0000      -0.476513       -12.9666 
  74   1.0000      -0.475113       -12.9285 
  75   1.0000      -0.467944       -12.7334 
  76   1.0000      -0.465941       -12.6789 
  77   1.0000      -0.461199       -12.5499 
  78   1.0000      -0.458963       -12.4890 
  79   1.0000      -0.456659       -12.4263 
  80   1.0000      -0.452056       -12.3011 
  81   1.0000      -0.449524       -12.2322 
  82   1.0000      -0.447709       -12.1828 
  83   1.0000      -0.445369       -12.1191 
  84   1.0000      -0.442103       -12.0302 
  85   1.0000      -0.440043       -11.9742 
  86   1.0000      -0.438372       -11.9287 
  87   1.0000      -0.436158       -11.8685 
  88   1.0000      -0.432391       -11.7660 
  89   1.0000      -0.417473       -11.3600 
  90   1.0000      -0.389533       -10.5997 
  91   1.0000      -0.366413        -9.9706 
  92   1.0000      -0.350595        -9.5402 
  93   1.0000      -0.344735        -9.3807 
  94   1.0000      -0.319567        -8.6959 
  95   0.0000      -0.145930        -3.9710 
  96   0.0000      -0.099219        -2.6999 
  97   0.0000      -0.022058        -0.6002 
  98   0.0000      -0.001714        -0.0466 
  99   0.0000       0.022490         0.6120 
 100   0.0000       0.028247         0.7686 
 101   0.0000       0.045190         1.2297 
 102   0.0000       0.078367         2.1325 
 103   0.0000       0.087473         2.3803 
 104   0.0000       0.096746         2.6326 
 105   0.0000       0.103195         2.8081 
*Only the first 10 virtual orbitals were printed.

                    ********************************
                    * MULLIKEN POPULATION ANALYSIS *
                    ********************************

--------------------------------------------
MULLIKEN ATOMIC CHARGES AND SPIN POPULATIONS
--------------------------------------------
   0 C :    0.388886   -0.000081
   1 O :   -0.452301   -0.000031
   2 O :   -0.389178   -0.000003
   3 C :    0.374406   -0.000216
   4 C :    0.351581   -0.004784
   5 C :    0.372262    0.008040
   6 C :    0.094586    0.853267
   7 C :    0.371960    0.001978
   8 C :    0.332678    0.002341
   9 C :    0.475746   -0.000152
  10 F :   -0.182836    0.000064
  11 F :   -0.184387   -0.000037
  12 F :   -0.174064    0.001460
  13 F :   -0.178535    0.000197
  14 F :   -0.169034    0.027603
  15 F :   -0.178052    0.001494
  16 F :   -0.155967    0.083423
  17 F :   -0.175632    0.001648
  18 F :   -0.168925    0.022186
  19 F :   -0.170526    0.000703
  20 F :   -0.169037    0.000727
  21 F :   -0.157513    0.000037
  22 F :   -0.154420    0.000082
  23 F :   -0.154370    0.000060
  24 H :    0.452671   -0.000006
Sum of atomic charges         :   -0.0000000
Sum of atomic spin populations:    1.0000000

-----------------------------------------------------
MULLIKEN REDUCED ORBITAL CHARGES AND SPIN POPULATIONS
-----------------------------------------------------
CHARGE
  0 C s       :     3.160442  s :     3.160442
      pz      :     0.776267  p :     2.229257
      px      :     0.788486
      py      :     0.664505
      dz2     :     0.015354  d :     0.203302
      dxz     :     0.014694
      dyz     :     0.057101
      dx2y2   :     0.050568
      dxy     :     0.065585
      f0      :     0.001742  f :     0.018113
      f+1     :     0.001067
      f-1     :     0.002349
      f+2     :     0.002580
      f-2     :     0.001944
      f+3     :     0.003922
      f-3     :     0.004509

  1 O s       :     3.664331  s :     3.664331
      pz      :     1.725745  p :     4.771416
      px      :     1.690684
      py      :     1.354986
      dz2     :     0.001630  d :     0.013734
      dxz     :     0.001147
      dyz     :     0.002996
      dx2y2   :     0.003092
      dxy     :     0.004870
      f0      :     0.000275  f :     0.002819
      f+1     :     0.000129
      f-1     :     0.000378
      f+2     :     0.000241
      f-2     :     0.000433
      f+3     :     0.000923
      f-3     :     0.000441

  2 O s       :     3.878554  s :     3.878554
      pz      :     1.540654  p :     4.484585
      px      :     1.696697
      py      :     1.247233
      dz2     :     0.003270  d :     0.024758
      dxz     :     0.000321
      dyz     :     0.006523
      dx2y2   :     0.009199
      dxy     :     0.005446
      f0      :     0.000116  f :     0.001281
      f+1     :     0.000012
      f-1     :     0.000222
      f+2     :     0.000222
      f-2     :     0.000029
      f+3     :     0.000288
      f-3     :     0.000392

  3 C s       :     3.121115  s :     3.121115
      pz      :     0.678261  p :     2.222922
      px      :     0.904853
      py      :     0.639808
      dz2     :     0.045328  d :     0.256347
      dxz     :     0.051353
      dyz     :     0.063813
      dx2y2   :     0.043971
      dxy     :     0.051883
      f0      :     0.005339  f :     0.025210
      f+1     :     0.003578
      f-1     :     0.003902
      f+2     :     0.003598
      f-2     :     0.002019
      f+3     :     0.003717
      f-3     :     0.003057

  4 C s       :     3.125072  s :     3.125072
      pz      :     0.607102  p :     2.220201
      px      :     0.915165
      py      :     0.697934
      dz2     :     0.059387  d :     0.275770
      dxz     :     0.058139
      dyz     :     0.066635
      dx2y2   :     0.033825
      dxy     :     0.057783
      f0      :     0.003796  f :     0.027377
      f+1     :     0.004823
      f-1     :     0.007869
      f+2     :     0.002230
      f-2     :     0.002620
      f+3     :     0.003477
      f-3     :     0.002562

  5 C s       :     3.144336  s :     3.144336
      pz      :     0.585807  p :     2.169290
      px      :     0.883937
      py      :     0.699545
      dz2     :     0.071043  d :     0.286328
      dxz     :     0.062849
      dyz     :     0.058687
      dx2y2   :     0.034684
      dxy     :     0.059065
      f0      :     0.005046  f :     0.027784
      f+1     :     0.004273
      f-1     :     0.006198
      f+2     :     0.003234
      f-2     :     0.004328
      f+3     :     0.002507
      f-3     :     0.002198

  6 C s       :     3.347051  s :     3.347051
      pz      :     0.752574  p :     2.402696
      px      :     0.898390
      py      :     0.751731
      dz2     :     0.036081  d :     0.140275
      dxz     :     0.027185
      dyz     :     0.021841
      dx2y2   :     0.020999
      dxy     :     0.034168
      f0      :     0.003124  f :     0.015392
      f+1     :     0.002399
      f-1     :     0.002269
      f+2     :     0.001756
      f-2     :     0.002776
      f+3     :     0.001555
      f-3     :     0.001513

  7 C s       :     3.119726  s :     3.119726
      pz      :     0.580441  p :     2.192135
      px      :     0.919062
      py      :     0.692631
      dz2     :     0.070291  d :     0.288472
      dxz     :     0.063461
      dyz     :     0.059720
      dx2y2   :     0.035614
      dxy     :     0.059386
      f0      :     0.004860  f :     0.027707
      f+1     :     0.004230
      f-1     :     0.006454
      f+2     :     0.003043
      f-2     :     0.004324
      f+3     :     0.002613
      f-3     :     0.002183

  8 C s       :     3.128754  s :     3.128754
      pz      :     0.615287  p :     2.235657
      px      :     0.929760
      py      :     0.690610
      dz2     :     0.057147  d :     0.275372
      dxz     :     0.058112
      dyz     :     0.068908
      dx2y2   :     0.034791
      dxy     :     0.056414
      f0      :     0.003809  f :     0.027538
      f+1     :     0.004870
      f-1     :     0.008059
      f+2     :     0.002197
      f-2     :     0.002347
      f+3     :     0.003723
      f-3     :     0.002533

  9 C s       :     3.029457  s :     3.029457
      pz      :     0.650503  p :     2.113815
      px      :     0.800915
      py      :     0.662396
      dz2     :     0.064416  d :     0.341137
      dxz     :     0.066721
      dyz     :     0.082536
      dx2y2   :     0.061769
      dxy     :     0.065694
      f0      :     0.004871  f :     0.039846
      f+1     :     0.007785
      f-1     :     0.008733
      f+2     :     0.004359
      f-2     :     0.003087
      f+3     :     0.007286
      f-3     :     0.003726

 10 F s       :     3.919882  s :     3.919882
      pz      :     1.897210  p :     5.247257
      px      :     1.887872
      py      :     1.462175
      dz2     :     0.002162  d :     0.015065
      dxz     :     0.000296
      dyz     :     0.002838
      dx2y2   :     0.005777
      dxy     :     0.003993
      f0      :     0.000049  f :     0.000631
      f+1     :     0.000015
      f-1     :     0.000128
      f+2     :     0.000070
      f-2     :     0.000018
      f+3     :     0.000168
      f-3     :     0.000182

 11 F s       :     3.919652  s :     3.919652
      pz      :     1.477537  p :     5.249544
      px      :     1.902254
      py      :     1.869753
      dz2     :     0.006660  d :     0.014570
      dxz     :     0.003378
      dyz     :     0.003666
      dx2y2   :     0.000431
      dxy     :     0.000435
      f0      :     0.000224  f :     0.000621
      f+1     :     0.000136
      f-1     :     0.000181
      f+2     :     0.000037
      f-2     :     0.000037
      f+3     :     0.000003
      f-3     :     0.000002

 12 F s       :     3.917421  s :     3.917421
      pz      :     1.812243  p :     5.239822
      px      :     1.906353
      py      :     1.521226
      dz2     :     0.002026  d :     0.016125
      dxz     :     0.000773
      dyz     :     0.005271
      dx2y2   :     0.004836
      dxy     :     0.003219
      f0      :     0.000079  f :     0.000697
      f+1     :     0.000004
      f-1     :     0.000120
      f+2     :     0.000187
      f-2     :     0.000063
      f+3     :     0.000107
      f-3     :     0.000136

 13 F s       :     3.919051  s :     3.919051
      pz      :     1.450531  p :     5.242793
      px      :     1.908950
      py      :     1.883312
      dz2     :     0.008361  d :     0.016006
      dxz     :     0.003648
      dyz     :     0.003454
      dx2y2   :     0.000264
      dxy     :     0.000278
      f0      :     0.000342  f :     0.000684
      f+1     :     0.000151
      f-1     :     0.000161
      f+2     :     0.000011
      f-2     :     0.000017
      f+3     :     0.000001
      f-3     :     0.000001

 14 F s       :     3.915953  s :     3.915953
      pz      :     1.709875  p :     5.236196
      px      :     1.901250
      py      :     1.625071
      dz2     :     0.002634  d :     0.016191
      dxz     :     0.001584
      dyz     :     0.006453
      dx2y2   :     0.003007
      dxy     :     0.002513
      f0      :     0.000078  f :     0.000694
      f+1     :     0.000013
      f-1     :     0.000187
      f+2     :     0.000194
      f-2     :     0.000103
      f+3     :     0.000058
      f-3     :     0.000061

 15 F s       :     3.916188  s :     3.916188
      pz      :     1.504295  p :     5.245045
      px      :     1.910568
      py      :     1.830181
      dz2     :     0.006781  d :     0.016126
      dxz     :     0.003171
      dyz     :     0.004790
      dx2y2   :     0.000594
      dxy     :     0.000789
      f0      :     0.000233  f :     0.000693
      f+1     :     0.000106
      f-1     :     0.000240
      f+2     :     0.000050
      f-2     :     0.000057
      f+3     :     0.000005
      f-3     :     0.000003

 16 F s       :     3.921710  s :     3.921710
      pz      :     1.581122  p :     5.216892
      px      :     1.910802
      py      :     1.724969
      dz2     :     0.004901  d :     0.016682
      dxz     :     0.002325
      dyz     :     0.006018
      dx2y2   :     0.001868
      dxy     :     0.001570
      f0      :     0.000119  f :     0.000683
      f+1     :     0.000044
      f-1     :     0.000238
      f+2     :     0.000140
      f-2     :     0.000095
      f+3     :     0.000023
      f-3     :     0.000024

 17 F s       :     3.917394  s :     3.917394
      pz      :     1.721476  p :     5.241230
      px      :     1.907310
      py      :     1.612444
      dz2     :     0.002487  d :     0.016309
      dxz     :     0.001483
      dyz     :     0.006502
      dx2y2   :     0.003262
      dxy     :     0.002576
      f0      :     0.000078  f :     0.000699
      f+1     :     0.000010
      f-1     :     0.000178
      f+2     :     0.000203
      f-2     :     0.000098
      f+3     :     0.000063
      f-3     :     0.000069

 18 F s       :     3.917209  s :     3.917209
      pz      :     1.499602  p :     5.234780
      px      :     1.903725
      py      :     1.831452
      dz2     :     0.006900  d :     0.016241
      dxz     :     0.003358
      dyz     :     0.004727
      dx2y2   :     0.000567
      dxy     :     0.000690
      f0      :     0.000242  f :     0.000695
      f+1     :     0.000114
      f-1     :     0.000233
      f+2     :     0.000045
      f-2     :     0.000055
      f+3     :     0.000004
      f-3     :     0.000003

 19 F s       :     3.917294  s :     3.917294
      pz      :     1.822320  p :     5.236337
      px      :     1.903590
      py      :     1.510428
      dz2     :     0.002027  d :     0.016199
      dxz     :     0.000626
      dyz     :     0.005081
      dx2y2   :     0.005077
      dxy     :     0.003388
      f0      :     0.000078  f :     0.000696
      f+1     :     0.000004
      f-1     :     0.000118
      f+2     :     0.000181
      f-2     :     0.000054
      f+3     :     0.000115
      f-3     :     0.000146

 20 F s       :     3.915083  s :     3.915083
      pz      :     1.446385  p :     5.236901
      px      :     1.903793
      py      :     1.886723
      dz2     :     0.008647  d :     0.016342
      dxz     :     0.003882
      dyz     :     0.003427
      dx2y2   :     0.000188
      dxy     :     0.000197
      f0      :     0.000362  f :     0.000711
      f+1     :     0.000167
      f-1     :     0.000158
      f+2     :     0.000009
      f-2     :     0.000013
[...]
      pz      :     0.000446  p :     0.007832
      px      :     0.000024
      py      :     0.007362
      dz2     :    -0.000077  d :    -0.000084
      dxz     :    -0.000113
      dyz     :     0.000076
      dx2y2   :     0.000012
      dxy     :     0.000019
      f0      :    -0.000005  f :    -0.000007
      f+1     :    -0.000005
      f-1     :     0.000001
      f+2     :     0.000002
      f-2     :    -0.000000
      f+3     :    -0.000000
      f-3     :     0.000000

 16 F s       :     0.002110  s :     0.002110
      pz      :     0.023891  p :     0.100370
      px      :     0.000958
      py      :     0.075521
      dz2     :     0.005820  d :     0.010346
      dxz     :     0.000156
      dyz     :     0.002295
      dx2y2   :     0.001725
      dxy     :     0.000351
      f0      :     0.000362  f :     0.000552
      f+1     :     0.000020
      f-1     :    -0.000003
      f+2     :     0.000121
      f-2     :     0.000019
      f+3     :     0.000015
      f-3     :     0.000018

 17 F s       :     0.001032  s :     0.001032
      pz      :     0.005973  p :     0.008540
      px      :     0.000516
      py      :     0.002050
      dz2     :    -0.000027  d :    -0.000173
      dxz     :     0.000025
      dyz     :    -0.000002
      dx2y2   :    -0.000033
      dxy     :    -0.000136
      f0      :    -0.000000  f :    -0.000009
      f+1     :     0.000001
      f-1     :    -0.000002
      f+2     :    -0.000001
      f-2     :    -0.000002
      f+3     :    -0.000004
      f-3     :    -0.000001

 18 F s       :     0.000955  s :     0.000955
      pz      :     0.004260  p :     0.010392
      px      :     0.005948
      py      :     0.000184
      dz2     :    -0.000079  d :    -0.000131
      dxz     :    -0.000039
      dyz     :    -0.000022
      dx2y2   :     0.000001
      dxy     :     0.000008
      f0      :    -0.000005  f :    -0.000007
      f+1     :    -0.000000
      f-1     :    -0.000000
      f+2     :    -0.000001
      f-2     :    -0.000001
      f+3     :     0.000001
      f-3     :     0.000000

 19 F s       :     0.000097  s :     0.000097
      pz      :     0.000610  p :     0.000597
      px      :     0.000428
      py      :    -0.000442
      dz2     :     0.000020  d :     0.000186
      dxz     :     0.000028
      dyz     :     0.000020
      dx2y2   :     0.000129
      dxy     :    -0.000012
      f0      :     0.000000  f :     0.000012
      f+1     :     0.000001
      f-1     :     0.000004
      f+2     :     0.000000
      f-2     :     0.000002
      f+3     :    -0.000000
      f-3     :     0.000005

 20 F s       :     0.000197  s :     0.000197
      pz      :    -0.000049  p :     0.000856
      px      :     0.000312
      py      :     0.000593
      dz2     :     0.000030  d :     0.000209
      dxz     :     0.000018
      dyz     :     0.000048
      dx2y2   :     0.000075
      dxy     :     0.000037
      f0      :     0.000002  f :     0.000012
      f+1     :     0.000001
      f-1     :     0.000002
      f+2     :     0.000003
      f-2     :     0.000003
      f+3     :     0.000000
      f-3     :     0.000000

 21 F s       :    -0.000005  s :    -0.000005
      pz      :     0.000038  p :     0.000059
      px      :    -0.000031
      py      :     0.000052
      dz2     :     0.000000  d :     0.000023
      dxz     :    -0.000003
      dyz     :     0.000001
      dx2y2   :    -0.000000
      dxy     :     0.000025
      f0      :     0.000000  f :     0.000001
      f+1     :    -0.000000
      f-1     :    -0.000000
      f+2     :     0.000000
      f-2     :     0.000000
      f+3     :     0.000001
      f-3     :     0.000000

 22 F s       :     0.000121  s :     0.000121
      pz      :     0.000297  p :     0.002129
      px      :     0.001743
      py      :     0.000088
      dz2     :     0.000001  d :     0.000077
      dxz     :     0.000026
      dyz     :     0.000002
      dx2y2   :     0.000007
      dxy     :     0.000041
      f0      :     0.000000  f :     0.000004
      f+1     :     0.000000
      f-1     :     0.000000
      f+2     :    -0.000000
      f-2     :     0.000002
      f+3     :     0.000001
      f-3     :     0.000001

 23 F s       :    -0.000005  s :    -0.000005
      pz      :    -0.000022  p :     0.000042
      px      :    -0.000109
      py      :     0.000174
      dz2     :     0.000007  d :     0.000021
      dxz     :     0.000011
      dyz     :     0.000000
      dx2y2   :    -0.000001
      dxy     :     0.000004
      f0      :     0.000001  f :     0.000001
      f+1     :     0.000000
      f-1     :    -0.000000
      f+2     :     0.000000
      f-2     :     0.000000
      f+3     :     0.000000
      f-3     :     0.000000

 24 H s       :     0.000025  s :     0.000025
      pz      :     0.000001  p :    -0.000000
      px      :    -0.000001
      py      :    -0.000000



                      *****************************
                      * MAYER POPULATION ANALYSIS *
                      *****************************

  NA   - Mulliken gross atomic population
  ZA   - Total nuclear charge
  QA   - Mulliken gross atomic charge
  VA   - Mayer's total valence
  BVA  - Mayer's bonded valence
  FA   - Mayer's free valence

  ATOM       NA         ZA         QA         VA         BVA        FA
  0 C      5.7705     6.0000     0.2295     4.3884     4.3884     0.0000
  1 O      8.3479     8.0000    -0.3479     2.1752     2.1752     0.0000
  2 O      8.2860     8.0000    -0.2860     2.2058     2.2058     0.0000
  3 C      5.5835     6.0000     0.4165     4.1134     4.1134     0.0000
  4 C      5.6903     6.0000     0.3097     4.0523     4.0522     0.0001
  5 C      5.6391     6.0000     0.3609     4.2070     4.2041     0.0029
  6 C      5.8714     6.0000     0.1286     3.8812     3.2965     0.5847
  7 C      5.6406     6.0000     0.3594     4.2038     4.2010     0.0028
  8 C      5.6799     6.0000     0.3201     4.1054     4.1046     0.0007
  9 C      5.5208     6.0000     0.4792     4.5116     4.5116     0.0000
 10 F      9.1766     9.0000    -0.1766     1.1355     1.1355     0.0000
 11 F      9.1738     9.0000    -0.1738     1.1416     1.1416     0.0000
 12 F      9.1753     9.0000    -0.1753     1.1454     1.1454     0.0000
 13 F      9.1752     9.0000    -0.1752     1.1427     1.1427     0.0000
 14 F      9.1794     9.0000    -0.1794     1.1242     1.1231     0.0011
 15 F      9.1766     9.0000    -0.1766     1.1338     1.1338     0.0001
 16 F      9.1408     9.0000    -0.1408     1.2026     1.1906     0.0120
 17 F      9.1724     9.0000    -0.1724     1.1404     1.1403     0.0001
 18 F      9.1724     9.0000    -0.1724     1.1437     1.1435     0.0002
 19 F      9.1719     9.0000    -0.1719     1.1452     1.1452     0.0000
 20 F      9.1702     9.0000    -0.1702     1.1485     1.1485     0.0000
 21 F      9.1557     9.0000    -0.1557     1.1620     1.1620     0.0000
 22 F      9.1552     9.0000    -0.1552     1.1632     1.1632     0.0000
 23 F      9.1550     9.0000    -0.1550     1.1633     1.1633     0.0000
 24 H      0.6196     1.0000     0.3804     0.8800     0.8800     0.0000

  Mayer bond orders larger than 0.100000
B(  0-C ,  1-O ) :   1.3055 B(  0-C ,  2-O ) :   2.0828 B(  0-C ,  3-C ) :   0.8975 
B(  1-O , 24-H ) :   0.8218 B(  3-C ,  4-C ) :   0.9364 B(  3-C , 10-F ) :   1.0927 
B(  3-C , 11-F ) :   1.1083 B(  4-C ,  5-C ) :   0.9185 B(  4-C , 12-F ) :   1.0795 
B(  4-C , 13-F ) :   1.0642 B(  5-C ,  6-C ) :   1.0454 B(  5-C , 14-F ) :   1.0710 
B(  5-C , 15-F ) :   1.0640 B(  6-C ,  7-C ) :   1.0230 B(  6-C , 16-F ) :   1.1253 
B(  7-C ,  8-C ) :   0.9086 B(  7-C , 17-F ) :   1.0907 B(  7-C , 18-F ) :   1.0861 
B(  8-C ,  9-C ) :   0.9627 B(  8-C , 19-F ) :   1.0739 B(  8-C , 20-F ) :   1.0823 
B(  9-C , 21-F ) :   1.1505 B(  9-C , 22-F ) :   1.1432 B(  9-C , 23-F ) :   1.1526 


-------
TIMINGS
-------

Total SCF time: 0 days 0 hours 0 min 45 sec 

Total time                  ....      45.994 sec
Sum of individual times     ....      44.879 sec  ( 97.6%)

SCF preparation             ....       1.429 sec  (  3.1%)
Fock matrix formation       ....      37.975 sec  ( 82.6%)
  Startup                   ....       0.173 sec  (  0.5% of F)
  Split-RI-J                ....       2.694 sec  (  7.1% of F)
  Chain of spheres X        ....      26.216 sec  ( 69.0% of F)
  XC integration            ....       6.335 sec  ( 16.7% of F)
    XC Preparation          ....       0.000 sec  (  0.0% of XC)
    Basis function eval.    ....       0.546 sec  (  8.6% of XC)
    Density eval.           ....       1.224 sec  ( 19.3% of XC)
    XC-Functional eval.     ....       0.049 sec  (  0.8% of XC)
    XC-Potential eval.      ....       1.274 sec  ( 20.1% of XC)
  CPCM terms                ....       2.117 sec  (  5.6% of F)
Diagonalization             ....       0.000 sec  (  0.0%)
Density matrix formation    ....       0.464 sec  (  1.0%)
Total Energy calculation    ....       0.285 sec  (  0.6%)
Population analysis         ....       0.487 sec  (  1.1%)
Orbital Transformation      ....       0.502 sec  (  1.1%)
Orbital Orthonormalization  ....       0.000 sec  (  0.0%)
DIIS solution               ....       0.720 sec  (  1.6%)
SOSCF solution              ....       3.016 sec  (  6.6%)
Finished LeanSCF after  46.4 sec

Maximum memory used throughout the entire LEANSCF-calculation: 110.0 MB


-------------------------------------------------------------------------------
                          DFT DISPERSION CORRECTION                            
                                                                               
                              DFTD3 V3.1  Rev 1                                
                          USING Becke-Johnson damping                          
-------------------------------------------------------------------------------
The B3LYP functional is recognized
Active option DFTDOPT                   ...         4   

molecular C6(AA) [au] = 6514.296546 


            DFT-D V3
 parameters
 s6 scaling factor         :     1.0000 
 a1 scaling factor         :     0.3981 
 s8 scaling factor         :     1.9889 
 a2 scaling factor         :     4.4211 
 ad hoc parameters k1-k3   :    16.0000     1.3333    -4.0000 

 Edisp/kcal,au: -26.975368062748  -0.042987980740 
 E6   /kcal   : -12.839893349 
 E8   /kcal   : -14.135474713 
 % E8         :  52.401415545 

-------------------------   ----------------
Dispersion correction           -0.042987981
-------------------------   ----------------


-------------------------   --------------------
FINAL SINGLE POINT ENERGY     -1853.736881037244
-------------------------   --------------------

                                *** OPTIMIZATION RUN DONE ***



           ************************************************************
           *        Program running with 20 parallel MPI-processes    *
           *              working on a common directory               *
           ************************************************************

------------------------------------------------------------------------------
                              ORCA PROPERTY CALCULATIONS
------------------------------------------------------------------------------

GBWName                                 ... rf_mecn_opt_B3L_C5_P_B.gbw
Number of atoms                         ...     25
Number of basis functions               ...    750
Max core memory                         ...   8000 MB

Electric properties:
Dipole moment                           ... YES
Quadrupole moment                       ...  NO
Static polarizability (Dipole/Dipole)   ...  NO
Static polarizability (Dipole/Quad.)    ...  NO
Static polarizability (Quad./Quad.)     ...  NO
Static polarizability (Velocity)        ...  NO

Atomic electric properties:
Dipole moment                           ...  NO
Quadrupole moment                       ...  NO
Static polarizability                   ...  NO

Choice of electric origin               ... Center of mass
Position of electric origin             ...    -0.034566    -0.304660    -0.132407

General magnetic properties:
Magnetizability                         ...  NO

EPR properties:
g-Tensor (aka g-matrix)                 ...  NO
Zero-Field splitting spin-orbit         ...  NO
Zero-field splitting spin-spin          ...  NO
Hyperfine couplings                     ...  NO (   0 nuclei)
Quadrupole couplings                    ...  NO (   0 nuclei)
Contact density                         ...  NO (   0 nuclei)

NMR properties:
Chemical shifts                         ...  NO (   0 nuclei)
Spin-rotation constants                 ...  NO (   0 nuclei)
Spin-spin couplings                     ...  NO (   0 nuclei,    0 pairs)

Choice of magnetic origin               ... GIAO
Position of magnetic origin             ...     0.000000     0.000000     0.000000

Properties with geometric perturbations:
SCF Hessian                             ...  NO
IR spectrum                             ...  NO
VCD spectrum                            ...  NO
X-ray spectroscopy properties:
SCF XES/XAS/RIXS spectra                ...  NO


-------------
DIPOLE MOMENT
-------------

Method             : SCF
Type of density    : Electron Density
Multiplicity       :   2
Irrep              :   0
Energy             : -1853.6938930565040664 Eh
Relativity type    : 
Basis              : AO
                                X                 Y                 Z
Electronic contribution:    -14.024670737      -1.535118875      -0.029083470
Nuclear contribution   :     15.004024013       1.380921219      -0.761089006
                        -----------------------------------------
Total Dipole Moment    :      0.979353276      -0.154197656      -0.790172477
                        -----------------------------------------
Magnitude (a.u.)       :      1.267786378
Magnitude (Debye)      :      3.222456879



--------------------
Rotational spectrum 
--------------------
 
Rotational constants in cm-1:             0.018862             0.004218             0.004108 
Rotational constants in MHz :           565.453914           126.457315           123.163342 

Dipole components along the rotational axes: 
x,y,z [a.u.] :     0.988930     0.654355     0.448464 
x,y,z [Debye]:     2.513660     1.663239     1.139904 

 

Dipole moment calculation done in   0.1 sec 

Maximum memory used throughout the entire PROP-calculation: 57.6 MB

--------------------------------
SUGGESTED CITATIONS FOR THIS RUN
--------------------------------

Below you find a list of papers that are relevant to this ORCA run
We neither can nor want to force you to cite these papers, but we appreciate if you do
You receive ORCA, which is the product of decades of hard work by many enthusiastic individuals, for free
The only thing we kindly ask in return is that you cite our papers,
We deeply appreciate it, if you show your appreciation for ORCA by not just citing the generic ORCA reference.

Please note that relegating all ORCA citations to the supporting information does *not* help us.
SI sections are not indexed - citations you put there will not count into any citation statistics
But we need these citations in order to attract the funding resources that allow us to do what we are doing

Therefore, if you are a happy ORCA user, please consider citing a few of the papers listed below in the main body of your paper

In addition to the list printed below, the program has created the file rf_mecn_opt_B3L_C5_P_B.bibtex that contains the list in bibtex format
You can import this file easily into all common literature databanks and citation aid programs


List of essential papers. We consider these as the minimum necessary citations

  1. Neese,F.
     Software update: the ORCA program system, version 5.0
     WIRES Comput. Molec. Sci., 2022 12(1)e1606
     doi.org/10.1002/wcms.1606

List of papers to cite with high priority. The work reported in these papers was absolutely
necessary for this run to complete.
Our perspective: the developers of density functionals and basis sets usually get cited in chemistry papers
Good! But without the algorithms to do something with them, the functionals or basis sets would not do anything.
Hence, in our opinion, the algorithm design and method developments papers are equally worthy of getting cited

  1. Neese,F.
     An improvement of the resolution of the identity approximation for the formation of the Coulomb matrix
     J. Comp. Chem., 2003 24(14)1740-1747
     doi.org/10.1002/jcc.10318
  2. Neese,F.; Wennmohs,F.; Hansen,A.; Becker,U.
     Efficient, approximate and parallel Hartree-Fock and hybrid DFT calculations. A 'chain-of-spheres' algorithm for the Hartree-Fock exchange
     Chem. Phys., 2009 356(1-3)98-109
     doi.org/10.1016/j.chemphys.2008.10.036
  3. Garcia-Rates,M.; Neese,F.
     Effect of the Solute Cavity on the Solvation Energy and its Derivatives within the Framework of the Gaussian Charge Scheme
     J. Comput. Chem., 2020 41 922-939
     doi.org/10.1002/jcc.26139
  4. Helmich-Paris,B.; de Souza,B.; Neese,F.; Izsák,R.
     An improved chain of spheres for exchange algorithm
     J. Chem. Phys., 2021 155 104109
     doi.org/doi: 10.1063/5.0058766.
  5. Neese,F.
     The SHARK Integral Generation and Digestion System
     J. Comp. Chem., 2022  1-16
     doi.org/10.1002/jcc.26942
  6. Grimme,S.; Antony,J.; Ehrlich,S.; Krieg,H.
     A consistent and accurate ab initio parametrization of density functional dispersion correction (DFT-D) for the 94 elements H-Pu
     J. Chem. Phys., 2010 132 154104
     doi.org/10.1063/1.3382344
  7. Grimme,S.; Ehrlich,S.; Goerigk,L.
     Effect of the damping function in dispersion corrected density functional theory
     J. Comput. Chem., 2011 32(7)1456-1465
     doi.org/10.1002/jcc.21759

List of suggested additional citations. These are papers that are important in the 'surrounding' of 
of this run, or papers that preceded the highly important papers. If you like your results we are grateful for a citation.

  1. Izsak,R.; Neese,F.
     An overlap fitted chain of spheres exchange method
     J. Chem. Phys., 2011 135 144105
     doi.org/10.1063/1.3646921
  2. Izsak,R.; Hansen,A.; Neese,F.
     The resolution of identity and chain of spheres approximations for the LPNO-CCSD singles Fock term
     Molec. Phys., 2012 110 2413-2417
     doi.org/10.1080/00268976.2012.687466
  3. Neese,F.
     The ORCA program system
     WIRES Comput. Molec. Sci., 2012 2(1)73-78
     doi.org/10.1002/wcms.81
  4. Izsak,R.; Neese,F.; Klopper,W.
     Robust fitting techniques in the chain of spheres approximation to the Fock exchange: The role of the complementary space
     J. Chem. Phys., 2013 139 
     doi.org/10.1063/1.4819264
  5. Neese,F.
     Software update: the ORCA program system, version 4.0
     WIRES Comput. Molec. Sci., 2018 8(1)1-6
     doi.org/10.1002/wcms.1327
  6. Neese,F.; Wennmohs,F.; Becker,U.; Riplinger,C.
     The ORCA quantum chemistry program package
     J. Chem. Phys., 2020 152 Art. No. L224108
     doi.org/10.1063/5.0004608

List of optional additional citations

  1. Neese,F.
     Approximate second-order SCF convergence for spin unrestricted wavefunctions
     Chem. Phys. Lett., 2000 325(1-3)93-98
     doi.org/10.1016/s0009-2614(00)00662-x

Timings for individual modules:

Sum of individual times          ...     4219.736 sec (=  70.329 min)
Startup calculation              ...      206.708 sec (=   3.445 min)   4.9 %
SCF iterations                   ...     2950.519 sec (=  49.175 min)  69.9 %
Property calculations            ...        1.035 sec (=   0.017 min)   0.0 %
SCF Gradient evaluation          ...     1060.540 sec (=  17.676 min)  25.1 %
Geometry relaxation              ...        0.934 sec (=   0.016 min)   0.0 %
                             ****ORCA TERMINATED NORMALLY****
TOTAL RUN TIME: 0 days 1 hours 10 minutes 52 seconds 315 msec
