
                                 *****************
                                 * O   R   C   A *
                                 *****************

                                            #,                                       
                                            ###                                      
                                            ####                                     
                                            #####                                    
                                            ######                                   
                                           ########,                                 
                                     ,,################,,,,,                         
                               ,,#################################,,                 
                          ,,##########################################,,             
                       ,#########################################, ''#####,          
                    ,#############################################,,   '####,        
                  ,##################################################,,,,####,       
                ,###########''''           ''''###############################       
              ,#####''   ,,,,##########,,,,          '''####'''          '####       
            ,##' ,,,,###########################,,,                        '##       
           ' ,,###''''                  '''############,,,                           
         ,,##''                                '''############,,,,        ,,,,,,###''
      ,#''                                            '''#######################'''  
     '                                                          ''''####''''         
             ,#######,   #######,   ,#######,      ##                                
            ,#'     '#,  ##    ##  ,#'     '#,    #''#        ,####,   ,####,        
            ##       ##  ##   ,#'  ##            #'  '#       #'       #'  '#        
            ##       ##  #######   ##           ,######,      #####,   #    #        
            '#,     ,#'  ##    ##  '#,     ,#' ,#      #,     #,   #   #,  ,#        
             '#######'   ##     ##  '#######'  #'      '#     '####' # '####'        



                #########################################################
                #                        -***-                          #
                #          Department of theory and spectroscopy        #
                #                                                       #
                #                      Frank Neese                      #
                #                                                       #
                #     Directorship, Architecture, Infrastructure        #
                #                    SHARK, DRIVERS                     #
                #        Core code/Algorithms in most modules           #
                #                                                       #
                #        Max Planck Institute fuer Kohlenforschung      #
                #                Kaiser Wilhelm Platz 1                 #
                #                 D-45470 Muelheim/Ruhr                 #
                #                      Germany                          #
                #                                                       #
                #                  All rights reserved                  #
                #                        -***-                          #
                #########################################################


                         Program Version 6.0.1  -  RELEASE   -


 With contributions from (in alphabetic order):
[Max-Planck-Institut fuer Kohlenforschung]                               
  Daniel Aravena         : Magnetic Suceptibility                        
  Michael Atanasov       : Ab Initio Ligand Field Theory (pilot matlab implementation)
  Alexander A. Auer      : GIAO ZORA, VPT2 properties, NMR spectrum      
  Ute Becker             : All parallelization in ORCA, NUMFREQ, NUMCALC 
  Giovanni Bistoni       : ED, misc. LED, open-shell LED, HFLD           
  Martin Brehm           : Molecular dynamics                            
  Dmytro Bykov           : pre 5.0 version of the SCF Hessian            
  Marcos Casanova-Páez   : Triplet and SCS-CIS(D). UHF-(DLPNO)-IP/EA/STEOM-CCSD. UHF-CVS-IP/STEOM-CCSD   
  Vijay G. Chilkuri      : MRCI spin determinant printing, contributions to CSF-ICE 
  Pauline Colinet        : FMM embedding                                 
  Dipayan Datta          : RHF DLPNO-CCSD density                        
  Achintya Kumar Dutta   : EOM-CC, STEOM-CC                              
  Nicolas Foglia         : Exact transition moments, OPA infrastructure, MCD improvements    
  Dmitry Ganyushin       : Spin-Orbit,Spin-Spin,Magnetic field MRCI      
  Miquel Garcia-Rates    : C-PCM and meta-GGA Hessian, CCSD/C-PCM, Gaussian charge scheme 
  Tiago L. C. Gouveia    : GS-ROHF, GS-ROCIS                             
  Yang Guo               : DLPNO-NEVPT2, F12-NEVPT2, CIM, IAO-localization        
  Andreas Hansen         : Spin unrestricted coupled pair/coupled cluster methods 
  Ingolf Harden          : AUTO-CI MPn and infrastructure                
  Benjamin Helmich-Paris : MC-RPA, TRAH-(SCF,CASSCF), AVAS, COSX integrals, SCF dyn. polar. 
  Lee Huntington         : MR-EOM, pCC                                   
  Robert Izsak           : Overlap fitted RIJCOSX, COSX-SCS-MP3, EOM     
  Riya Kayal             : Wick's Theorem for AUTO-CI, AUTO-CI UHF-CCSDT 
  Emily Kempfer          : AUTO-CI, RHF CISDT and CCSDT                  
  Christian Kollmar      : KDIIS, OOCD, Brueckner-CCSD(T), CCSD density, CASPT2, CASPT2-K, improved NEVPT2 
  Axel Koslowski         : Symmetry handling                             
  Simone Kossmann        : meta-GGA functionals, TD-DFT gradient, OOMP2, (MP2 Hessian; deprecated post 5.0) 
  Lucas Lang             : DCDCAS                                        
  Marvin Lechner         : AUTO-CI (C++ implementation), FIC-MRCC        
  Spencer Leger          : CASSCF response                               
  Dagmar Lenk            : GEPOL surface, SMD, ORCA-2-JSON               
  Dimitrios Liakos       : Extrapolation schemes; Compound Job, initial MDCI parallelization 
  Dimitrios Manganas     : Further ROCIS development; embedding schemes. LFT, Crystal Embedding 
  Dimitrios Pantazis     : SARC Basis sets                               
  Anastasios Papadopoulos: AUTO-CI, single reference methods and gradients 
  Taras Petrenko         : pre 6.0 DFT Hessian and TD-DFT gradient, (ASA, deprecated), ECA, 1-Electron XAS/XES, NRVS 
  Peter Pinski           : DLPNO-MP2, DLPNO-MP2 Gradient                 
  Christoph Reimann      : Effective Core Potentials                     
  Marius Retegan         : Local ZFS, SOC                                
  Christoph Riplinger    : Optimizer, TS searches, QM/MM, DLPNO-CCSD(T), (RO)-DLPNO pert. Triples 
  Michael Roemelt        : Original ROCIS implementation                 
  Masaaki Saitow         : Open-shell DLPNO-CCSD energy and density      
  Barbara Sandhoefer     : DKH picture change effects                    
  Kantharuban Sivalingam : CASSCF convergence/infrastructure, NEVPT2 and variants, FIC-MRCI 
  Bernardo de Souza      : ESD, SOC TD-DFT                               
  Georgi L. Stoychev     : AutoAux, RI-MP2 NMR, DLPNO-MP2 response, X2C  
  Van Anh Tran           : RI-MP2 g-tensors                              
  Willem Van den Heuvel  : Paramagnetic NMR                              
  Zikuan Wang            : NOTCH, Electric field optimization            
  Frank Wennmohs         : Technical directorship and infrastructure     
  Hang Xu                : AUTO-CI-Response properties                   
                                                                         
[FACCTs GmbH]                                                            
  Markus Bursch, Miquel Garcia-Rates, Christoph Riplinger, Bernardo de Souza, Georgi L. Stoychev 
                                                                 
  APM, Basis sets (HGBS, AHGBS, def-TZVP (Ac-Lr), def2-XVPD (La-Lu)), CI-OPT, improved COSX, DLPNO-Multilevel,           
  DOCKER, DRACO, updates on ESD, GOAT, IRC, LR-CPCM, MBIS, meta-GGA TD-DFT gradient, ML-optimized integration grids, 
  MM, NACMEs, nearIR, NEB, NEB-TS, NL-DFT gradient (VV10), 2- and 3-layer-ONIOM, interface openCOSMO-RS, QMMM,   
  Crystal-QMMM, SF, symmetry and pop. for TD-DFT, r2SCAN hybrids, SOLVATOR                                   
                                                                         
[Other institutions]                                                     
  V. Asgeirsson          : NEB                                           
  Christoph Bannwarth    : sTDA-DFT, sTD-DFT, PBEh-3c, B97-3c, D3        
  Sebastian Ehlert       : rSCAN, r2SCAN, r2SCAN-3c, D4, dhf basis sets  
  Marvin Friede          : D4 for Fr, Ra, Ac-Lr                          
  Lars Goerigk           : TD-DFT with DH, B97 family of functionals     
  Stefan Grimme          : VdW corrections, initial TS optimization, DFT functionals, gCP, sTDA/sTD-DF 
  Waldemar Hujo          : DFT-NL                                        
  H. Jonsson             : NEB                                           
  Holger Kruse           : gCP                                           
  Marcel Mueller         : wB97X-3c, vDZP basis set                      
  Hagen Neugebauer       : wr2SCAN                                       
  Tobias Risthaus        : range-separated hybrid DFT                    
  Lukas Wittmann         : regularized MP2, r2SCAN double-hybrids, wr2SCAN        
                                                                         
We gratefully acknowledge several colleagues who have allowed us to      
interface, adapt or use parts of their codes:                            
  Ed Valeev, F. Pavosevic, A. Kumar             : LibInt (2-el integral package), F12 methods 
  Garnet Chan, S. Sharma, J. Yang, R. Olivares  : DMRG                   
  Ulf Ekstrom                                   : XCFun DFT Library      
  Mihaly Kallay                                 : mrcc  (arbitrary order and MRCC methods)
  Frank Weinhold                                : gennbo (NPA and NBO analysis)           
  Simon Mueller                                 : openCOSMO-RS                            
  Christopher J. Cramer and Donald G. Truhlar   : smd solvation model                     
  S Lehtola, MJT Oliveira, MAL Marques          : LibXC Library                           
  Liviu Ungur et al                             : ANISO software                          


 Your calculation uses the libint2 library for the computation of 2-el integrals
 For citations please refer to: http://libint.valeyev.net

 Your ORCA version has been built with support for libXC version: 6.2.2
 For citations please refer to: https://libxc.gitlab.io

 This ORCA versions uses:
   CBLAS   interface :  Fast vector & matrix operations
   LAPACKE interface :  Fast linear algebra routines
   SCALAPACK package :  Parallel linear algebra routines
   Shared memory     :  Shared parallel matrices
   BLAS/LAPACK       :  OpenBLAS 0.3.27  USE64BITINT DYNAMIC_ARCH NO_AFFINITY SkylakeX SINGLE_THREADED
        Core in use  :  SkylakeX
   Copyright (c) 2011-2014, The OpenBLAS Project


NOTE: MaxCore=8000 MB was set to SCF,MP2,MDCI,CIPSI,MRCI and CIS
      => If you want to overwrite this, your respective input block should be placed after the MaxCore statement
Your calculation utilizes the atom-pairwise dispersion correction
with the Becke-Johnson damping scheme (D3BJ)


Your calculation utilizes the SMD solvation module
Please cite in your paper:
A.V. Marenich, C.J. Cramer, D.G. Truhlar J. Phys. Chem. B, 113, (2009), 6378 

Warning: RI is on but no J-basis has been assigned. Assigning Def2/J (nothing to worry about!)
================================================================================

----- Orbital basis set information -----
Your calculation utilizes the basis: def2-TZVP
   F. Weigend and R. Ahlrichs, Phys. Chem. Chem. Phys. 7, 3297 (2005).

----- AuxJ basis set information -----
Your calculation utilizes the auxiliary basis: def2/J
   F. Weigend, Phys. Chem. Chem. Phys. 8, 1057 (2006).

================================================================================
                                        WARNINGS
                       Please study these warnings very carefully!
================================================================================


WARNING: your system is open-shell and RHF/RKS was chosen
  ===> : WILL SWITCH to UHF/UKS


WARNING: Geometry Optimization
  ===> : Switching off AutoStart
         For restart on a previous wavefunction, please use MOREAD

================================================================================
                                       INPUT FILE
================================================================================
NAME = rf_mecn_opt_B3L_C3_P_B.inp
|  1> !B3LYP def2-TZVP opt d3 TightSCF SlowConv defgrid2
|  2>  
|  3> %pal
|  4> nprocs 20
|  5> end
|  6>  
|  7> %scf
|  8> MaxIter 1500
|  9> end
| 10>  
| 11> %maxcore 8000
| 12>  
| 13> !CPCM
| 14> %cpcm smd true
| 15> SMDsolvent "ACETONITRILE"
| 16> end
| 17>  
| 18> * xyz 0 2
| 19> 6        4.790427000     -0.033865800     -0.529943200
| 20> 8        5.449345000     -1.206924000     -0.894594600
| 21> 8        4.978223000      1.323071000     -0.737377200
| 22> 6        3.506687600     -0.338741600      0.376153800
| 23> 6        2.222300000      0.400524800     -0.110681600
| 24> 6        0.900506800     -0.386389800      0.175703000
| 25> 6       -0.395261200      0.487294000      0.065549000
| 26> 6       -1.705693600     -0.364773800     -0.068373600
| 27> 6       -3.005136200      0.445344800      0.258164000
| 28> 6       -4.319880200     -0.214526000     -0.270540800
| 29> 9        3.211587400     -1.692050400      0.412735200
| 30> 9        3.741061800      0.055285800      1.689948800
| 31> 9        2.314152400      0.589704000     -1.455769200
| 32> 9        0.794028800     -1.413561400     -0.700839000
| 33> 9        0.958350600     -0.884509000      1.435093400
| 34> 9       -0.498373400      1.260265600      1.173340200
| 35> 9       -0.299075000      1.289512600     -1.020910800
| 36> 9       -1.641790400     -1.418189000      0.779523800
| 37> 9       -1.792381400     -0.831391600     -1.336863600
| 38> 9       -2.918792200      1.679227200     -0.295171200
| 39> 9       -3.119771000      0.573779800      1.598579800
| 40> 9       -4.383115600     -1.504377600      0.089127600
| 41> 9       -5.365669800      0.430528600      0.260394200
| 42> 9       -4.396020400     -0.128550600     -1.602941800
| 43> 1        5.903122371     -2.014774547     -1.145719253
| 44> *
| 45> 
| 46>                          ****END OF INPUT****
================================================================================

                       *****************************
                       * Geometry Optimization Run *
                       *****************************

Geometry optimization settings:
Update method            Update   .... BFGS
Choice of coordinates    CoordSys .... (2022) Redundant Internals
Initial Hessian          InHess   .... Almloef's Model
Max. no of cycles        MaxIter  .... 75

Convergence Tolerances:
Energy Change            TolE     ....  5.0000e-06 Eh
Max. Gradient            TolMAXG  ....  3.0000e-04 Eh/bohr
RMS Gradient             TolRMSG  ....  1.0000e-04 Eh/bohr
Max. Displacement        TolMAXD  ....  4.0000e-03 bohr
RMS Displacement         TolRMSD  ....  2.0000e-03 bohr
Strict Convergence                .... False

------------------------------------------------------------------------------
                        ORCA OPTIMIZATION COORDINATE SETUP
------------------------------------------------------------------------------

The optimization will be done in redundant internal coordinates (2022)
Making redundant internal coordinates   ...  (2022 redundants) done
Evaluating the initial hessian          ...  (Almloef) done
Evaluating the coordinates              ...  done
Calculating the B-matrix                .... done
Calculating the G-matrix                .... done
Diagonalizing the G-matrix              .... done
Small eigenvalue found = 4.663e-03
Small eigenvalue found = 1.280e-02
Small eigenvalue found = 2.840e-02
Small eigenvalue found = 2.945e-02
The first mode is                       ....   39
The number of degrees of freedom        ....   69

    -----------------------------------------------------------------
                    Redundant Internal Coordinates


    -----------------------------------------------------------------
         Definition                    Initial Value    Approx d2E/dq
    -----------------------------------------------------------------
      1. B(O   1,C   0)                  1.3940         0.551454   
      2. B(O   2,C   0)                  1.3855         0.568952   
      3. B(C   3,C   0)                  1.6006         0.288221   
      4. B(C   4,C   3)                  1.5599         0.334759   
      5. B(C   5,C   4)                  1.5647         0.328824   
      6. B(C   6,C   5)                  1.5667         0.326486   
      7. B(C   7,C   6)                  1.5688         0.323927   
      8. B(C   8,C   7)                  1.5657         0.327637   
      9. B(C   9,C   8)                  1.5632         0.330714   
     10. B(F  10,C   3)                  1.3856         0.528443   
     11. B(F  11,C   3)                  1.3915         0.517117   
     12. B(F  12,C   4)                  1.3614         0.577499   
     13. B(F  13,C   5)                  1.3545         0.592326   
     14. B(F  14,C   5)                  1.3556         0.590092   
     15. B(F  15,C   6)                  1.3547         0.591865   
     16. B(F  16,C   6)                  1.3540         0.593567   
     17. B(F  17,C   7)                  1.3538         0.593973   
     18. B(F  18,C   7)                  1.3544         0.592672   
     19. B(F  19,C   8)                  1.3550         0.591238   
     20. B(F  20,C   8)                  1.3514         0.599114   
     21. B(F  21,C   9)                  1.3406         0.623533   
     22. B(F  22,C   9)                  1.3385         0.628179   
     23. B(F  23,C   9)                  1.3373         0.630929   
     24. B(H  24,O   1)                  0.9600         0.519956   
     25. A(O   1,C   0,O   2)          136.1318         0.413163   
     26. A(O   1,C   0,C   3)          111.5249         0.369222   
     27. A(O   2,C   0,C   3)          112.3347         0.371210   
     28. L(C   0,O   1,H  24,C   3, 2) 180.0000         0.362759   
     29. L(C   0,O   1,H  24,C   3, 1) 180.0000         0.362759   
     30. A(F  10,C   3,F  11)          106.7094         0.399684   
     31. A(C   0,C   3,F  11)          110.2099         0.363632   
     32. A(C   0,C   3,C   4)          113.1687         0.341363   
     33. A(C   4,C   3,F  11)          107.4072         0.373095   
     34. A(C   4,C   3,F  10)          107.2033         0.374492   
     35. A(C   0,C   3,F  10)          111.8265         0.364982   
     36. A(C   3,C   4,F  12)          108.5818         0.380286   
     37. A(C   3,C   4,C   5)          113.5839         0.349005   
     38. A(C   5,C   4,F  12)          107.9208         0.379109   
     39. A(F  13,C   5,F  14)          109.0206         0.417483   
     40. A(C   6,C   5,F  14)          107.7906         0.380059   
     41. A(C   4,C   5,F  14)          108.5900         0.380529   
     42. A(C   6,C   5,F  13)          108.2026         0.380308   
     43. A(C   4,C   5,F  13)          109.2282         0.380779   
     44. A(C   4,C   5,C   6)          113.9128         0.347536   
     45. A(C   5,C   6,C   7)          113.2023         0.346660   
     46. A(F  15,C   6,F  16)          108.8752         0.417862   
     47. A(C   7,C   6,F  16)          108.2186         0.379927   
     48. A(C   5,C   6,F  16)          109.1523         0.380446   
     49. A(C   7,C   6,F  15)          108.4284         0.379738   
     50. A(C   5,C   6,F  15)          108.8835         0.380256   
     51. A(C   8,C   7,F  18)          108.6915         0.380579   
     52. A(C   6,C   7,F  18)          108.6955         0.379828   
     53. A(C   8,C   7,F  17)          108.1296         0.380723   
     54. A(F  17,C   7,F  18)          108.7561         0.418014   
     55. A(C   6,C   7,F  17)          109.2524         0.379972   
     56. A(C   6,C   7,C   8)          113.2298         0.346865   
     57. A(F  19,C   8,F  20)          108.8987         0.418476   
     58. A(C   7,C   8,C   9)          114.1471         0.348078   
     59. A(C   9,C   8,F  20)          107.7127         0.381912   
     60. A(C   7,C   8,F  20)          109.0521         0.381293   
     61. A(C   9,C   8,F  19)          107.4499         0.381036   
     62. A(C   7,C   8,F  19)          109.4572         0.380419   
     63. A(F  22,C   9,F  23)          108.6464         0.426961   
     64. A(F  21,C   9,F  23)          109.0552         0.426394   
     65. A(C   8,C   9,F  23)          110.9604         0.385362   
     66. A(F  21,C   9,F  22)          108.6877         0.426061   
     67. A(C   8,C   9,F  22)          108.6349         0.385069   
     68. A(C   8,C   9,F  21)          110.7995         0.384572   
     69. D(C   4,C   3,C   0,O   2)     49.8076         0.006601   
     70. D(C   4,C   3,C   0,O   1)   -131.0839         0.006601   
     71. D(F  10,C   3,C   0,O   2)    171.0025         0.006601   
     72. D(F  10,C   3,C   0,O   1)     -9.8890         0.006601   
     73. D(F  11,C   3,C   0,O   1)    108.6317         0.006601   
     74. D(F  11,C   3,C   0,O   2)    -70.4768         0.006601   
     75. D(C   5,C   4,C   3,C   0)    148.6429         0.008543   
     76. D(F  12,C   4,C   3,C   0)     28.5784         0.008543   
     77. D(F  12,C   4,C   3,F  10)    -95.1911         0.008543   
     78. D(C   5,C   4,C   3,F  10)     24.8733         0.008543   
     79. D(C   5,C   4,C   3,F  11)    -89.4885         0.008543   
     80. D(F  13,C   5,C   4,C   3)    -74.9661         0.008276   
     81. D(C   6,C   5,C   4,F  12)    -75.6292         0.008276   
     82. D(F  13,C   5,C   4,F  12)     45.4721         0.008276   
     83. D(C   6,C   5,C   4,C   3)    163.9326         0.008276   
     84. D(F  14,C   5,C   4,C   3)     43.8158         0.008276   
     85. D(F  15,C   6,C   5,F  14)     44.2190         0.008700   
     86. D(F  15,C   6,C   5,F  13)    161.9826         0.008700   
     87. D(F  15,C   6,C   5,C   4)    -76.3465         0.008700   
     88. D(C   7,C   6,C   5,F  14)    -76.4529         0.008700   
     89. D(C   7,C   6,C   5,F  13)     41.3107         0.008700   
     90. D(C   7,C   6,C   5,C   4)    162.9815         0.008700   
     91. D(F  17,C   7,C   6,F  16)    162.9167         0.008578   
     92. D(F  17,C   7,C   6,F  15)    -79.1358         0.008578   
     93. D(F  17,C   7,C   6,C   5)     41.7939         0.008578   
     94. D(C   8,C   7,C   6,F  16)    -76.5134         0.008578   
     95. D(C   8,C   7,C   6,F  15)     41.4341         0.008578   
     96. D(C   8,C   7,C   6,C   5)    162.3638         0.008578   
     97. D(C   9,C   8,C   7,F  18)     41.5227         0.008755   
     98. D(C   9,C   8,C   7,F  17)    -76.3785         0.008755   
     99. D(C   9,C   8,C   7,C   6)    162.4166         0.008755   
    100. D(F  19,C   8,C   7,F  18)    -78.9355         0.008755   
    101. D(F  19,C   8,C   7,F  17)    163.1633         0.008755   
    102. D(F  19,C   8,C   7,C   6)     41.9584         0.008755   
    103. D(F  22,C   9,C   8,F  20)     48.1091         0.008903   
    104. D(F  22,C   9,C   8,F  19)    -69.0724         0.008903   
    105. D(F  22,C   9,C   8,C   7)    169.3552         0.008903   
    106. D(F  21,C   9,C   8,F  20)    -71.2185         0.008903   
    107. D(F  21,C   9,C   8,F  19)    171.5999         0.008903   
    108. D(F  21,C   9,C   8,C   7)     50.0276         0.008903   
    -----------------------------------------------------------------

Number of atoms                         .... 25
Number of degrees of freedom            .... 108


         *************************************************************
         *                GEOMETRY OPTIMIZATION CYCLE   1            *
         *************************************************************
---------------------------------
CARTESIAN COORDINATES (ANGSTROEM)
---------------------------------
  C      4.790427   -0.033866   -0.529943
  O      5.449345   -1.206924   -0.894595
  O      4.978223    1.323071   -0.737377
  C      3.506688   -0.338742    0.376154
  C      2.222300    0.400525   -0.110682
  C      0.900507   -0.386390    0.175703
  C     -0.395261    0.487294    0.065549
  C     -1.705694   -0.364774   -0.068374
  C     -3.005136    0.445345    0.258164
  C     -4.319880   -0.214526   -0.270541
  F      3.211587   -1.692050    0.412735
  F      3.741062    0.055286    1.689949
  F      2.314152    0.589704   -1.455769
  F      0.794029   -1.413561   -0.700839
  F      0.958351   -0.884509    1.435093
  F     -0.498373    1.260266    1.173340
  F     -0.299075    1.289513   -1.020911
  F     -1.641790   -1.418189    0.779524
  F     -1.792381   -0.831392   -1.336864
  F     -2.918792    1.679227   -0.295171
  F     -3.119771    0.573780    1.598580
  F     -4.383116   -1.504378    0.089128
  F     -5.365670    0.430529    0.260394
  F     -4.396020   -0.128551   -1.602942
  H      5.903122   -2.014775   -1.145719

----------------------------
CARTESIAN COORDINATES (A.U.)
----------------------------
  NO LB      ZA    FRAG     MASS         X           Y           Z
   0 C     6.0000    0    12.011    9.052595   -0.063997   -1.001448
   1 O     8.0000    0    15.999   10.297770   -2.280756   -1.690539
   2 O     8.0000    0    15.999    9.407478    2.500242   -1.393441
   3 C     6.0000    0    12.011    6.626679   -0.640129    0.710828
   4 C     6.0000    0    12.011    4.199538    0.756882   -0.209158
   5 C     6.0000    0    12.011    1.701711   -0.730171    0.332031
   6 C     6.0000    0    12.011   -0.746935    0.920852    0.123870
   7 C     6.0000    0    12.011   -3.223294   -0.689323   -0.129207
   8 C     6.0000    0    12.011   -5.678884    0.841580    0.487859
   9 C     6.0000    0    12.011   -8.163391   -0.405395   -0.511248
  10 F     9.0000    0    18.998    6.069021   -3.197512    0.779956
  11 F     9.0000    0    18.998    7.069582    0.104475    3.193540
  12 F     9.0000    0    18.998    4.373114    1.114379   -2.751005
  13 F     9.0000    0    18.998    1.500497   -2.671244   -1.324394
  14 F     9.0000    0    18.998    1.811020   -1.671480    2.711934
  15 F     9.0000    0    18.998   -0.941789    2.381557    2.217292
  16 F     9.0000    0    18.998   -0.565170    2.436826   -1.929242
  17 F     9.0000    0    18.998   -3.102534   -2.679989    1.473086
  18 F     9.0000    0    18.998   -3.387110   -1.571102   -2.526306
  19 F     9.0000    0    18.998   -5.515718    3.173280   -0.557793
  20 F     9.0000    0    18.998   -5.895513    1.084287    3.020878
  21 F     9.0000    0    18.998   -8.282888   -2.842862    0.168427
  22 F     9.0000    0    18.998  -10.139646    0.813581    0.492074
  23 F     9.0000    0    18.998   -8.307275   -0.242925   -3.029121
  24 H     1.0000    0     1.008   11.155285   -3.807372   -2.165096

--------------------------------
INTERNAL COORDINATES (ANGSTROEM)
--------------------------------
 C      0   0   0     0.000000000000     0.00000000     0.00000000
 O      1   0   0     1.393990356793     0.00000000     0.00000000
 O      1   2   0     1.385486802956   136.13177198     0.00000000
 C      1   2   3     1.600608594862   111.52489317   181.18992567
 C      4   1   2     1.559863783763   113.16872737   228.91614990
 C      5   4   1     1.564732561934   113.58394786   148.64287440
 C      6   5   4     1.566675459667   113.91280616   163.93256239
 C      7   6   5     1.568817348692   113.20226571   162.98152714
 C      8   7   6     1.565717094808   113.22984595   162.36375422
 C      9   8   7     1.563173062643   114.14707705   162.41661495
 F      4   1   2     1.385592665621   111.82651119   350.11101305
 F      4   1   2     1.391490625050   110.20991618   108.63170802
 F      5   4   1     1.361428031433   108.58179722    28.57841973
 F      6   5   4     1.354527570075   109.22822656   285.03385927
 F      6   5   4     1.355556277776   108.59004089    43.81583148
 F      7   6   5     1.354739297058   108.88346185   283.65347401
 F      7   6   5     1.353957667090   109.15230848    42.38718856
 F      8   7   6     1.353771473879   109.25240264    41.79387651
 F      8   7   6     1.354368423305   108.69554158   283.25540020
 F      9   8   7     1.355028009646   109.45719767    41.95842364
 F      9   8   7     1.351425618925   109.05210362   282.91820052
 F     10   9   8     1.340551089588   110.79953142    50.02756898
 F     10   9   8     1.338530275591   108.63493714   169.35523750
 F     10   9   8     1.337341214598   110.96044107   288.72891896
 H      2   1   3     0.960000000033   180.00000000     0.00000000

---------------------------
INTERNAL COORDINATES (A.U.)
---------------------------
 C      0   0   0     0.000000000000     0.00000000     0.00000000
 O      1   0   0     2.634260007667     0.00000000     0.00000000
 O      1   2   0     2.618190619750   136.13177198     0.00000000
 C      1   2   3     3.024711891890   111.52489317   181.18992567
 C      4   1   2     2.947715357535   113.16872737   228.91614990
 C      5   4   1     2.956916014884   113.58394786   148.64287440
 C      6   5   4     2.960587559506   113.91280616   163.93256239
 C      7   6   5     2.964635143173   113.20226571   162.98152714
 C      8   7   6     2.958776512386   113.22984595   162.36375422
 C      9   8   7     2.953968988318   114.14707705   162.41661495
 F      4   1   2     2.618390671194   111.82651119   350.11101305
 F      4   1   2     2.629536199263   110.20991618   108.63170802
 F      5   4   1     2.572726130452   108.58179722    28.57841973
 F      6   5   4     2.559686148288   109.22822656   285.03385927
 F      6   5   4     2.561630124115   108.59004089    43.81583148
 F      7   6   5     2.560086254300   108.88346185   283.65347401
 F      7   6   5     2.558609187723   109.15230848    42.38718856
 F      8   7   6     2.558257333546   109.25240264    41.79387651
 F      8   7   6     2.559385404477   108.69554158   283.25540020
 F      9   8   7     2.560631842023   109.45719767    41.95842364
 F      9   8   7     2.553824310132   109.05210362   282.91820052
 F     10   9   8     2.533274427850   110.79953142    50.02756898
 F     10   9   8     2.529455642830   108.63493714   169.35523750
 F     10   9   8     2.527208643196   110.96044107   288.72891896
 H      2   1   3     1.814137088628   180.00000000     0.00000000

---------------------
BASIS SET INFORMATION
---------------------
There are 4 groups of distinct atoms

 Group   1 Type C   : 11s6p2d1f contracted to 5s3p2d1f pattern {62111/411/11/1}
 Group   2 Type O   : 11s6p2d1f contracted to 5s3p2d1f pattern {62111/411/11/1}
 Group   3 Type F   : 11s6p2d1f contracted to 5s3p2d1f pattern {62111/411/11/1}
 Group   4 Type H   : 5s1p contracted to 3s1p pattern {311/1}

Atom   0C    basis set group =>   1
Atom   1O    basis set group =>   2
Atom   2O    basis set group =>   2
Atom   3C    basis set group =>   1
Atom   4C    basis set group =>   1
Atom   5C    basis set group =>   1
Atom   6C    basis set group =>   1
Atom   7C    basis set group =>   1
Atom   8C    basis set group =>   1
Atom   9C    basis set group =>   1
Atom  10F    basis set group =>   3
Atom  11F    basis set group =>   3
Atom  12F    basis set group =>   3
Atom  13F    basis set group =>   3
Atom  14F    basis set group =>   3
Atom  15F    basis set group =>   3
Atom  16F    basis set group =>   3
Atom  17F    basis set group =>   3
Atom  18F    basis set group =>   3
Atom  19F    basis set group =>   3
Atom  20F    basis set group =>   3
Atom  21F    basis set group =>   3
Atom  22F    basis set group =>   3
Atom  23F    basis set group =>   3
Atom  24H    basis set group =>   4
---------------------------------
AUXILIARY/J BASIS SET INFORMATION
---------------------------------
There are 4 groups of distinct atoms

 Group   1 Type C   : 12s5p4d2f1g contracted to 6s4p3d1f1g pattern {711111/2111/211/2/1}
 Group   2 Type O   : 12s5p4d2f1g contracted to 6s4p3d1f1g pattern {711111/2111/211/2/1}
 Group   3 Type F   : 12s5p4d2f1g contracted to 6s4p3d1f1g pattern {711111/2111/211/2/1}
 Group   4 Type H   : 5s2p1d contracted to 3s1p1d pattern {311/2/1}

Atom   0C    basis set group =>   1
Atom   1O    basis set group =>   2
Atom   2O    basis set group =>   2
Atom   3C    basis set group =>   1
Atom   4C    basis set group =>   1
Atom   5C    basis set group =>   1
Atom   6C    basis set group =>   1
Atom   7C    basis set group =>   1
Atom   8C    basis set group =>   1
Atom   9C    basis set group =>   1
Atom  10F    basis set group =>   3
Atom  11F    basis set group =>   3
Atom  12F    basis set group =>   3
Atom  13F    basis set group =>   3
Atom  14F    basis set group =>   3
Atom  15F    basis set group =>   3
Atom  16F    basis set group =>   3
Atom  17F    basis set group =>   3
Atom  18F    basis set group =>   3
Atom  19F    basis set group =>   3
Atom  20F    basis set group =>   3
Atom  21F    basis set group =>   3
Atom  22F    basis set group =>   3
Atom  23F    basis set group =>   3
Atom  24H    basis set group =>   4


           ************************************************************
           *        Program running with 20 parallel MPI-processes    *
           *              working on a common directory               *
           ************************************************************
------------------------------------------------------------------------------
                             ORCA STARTUP CALCULATIONS
                           -- RI-GTO INTEGRALS CHOSEN --
------------------------------------------------------------------------------
------------------------------------------------------------------------------
                   ___                                                        
                  /   \      - P O W E R E D   B Y -                         
                 /     \                                                     
                 |  |  |   _    _      __       _____    __    __             
                 |  |  |  | |  | |    /  \     |  _  \  |  |  /  |          
                  \  \/   | |  | |   /    \    | | | |  |  | /  /          
                 / \  \   | |__| |  /  /\  \   | |_| |  |  |/  /          
                |  |  |   |  __  | /  /__\  \  |    /   |      \           
                |  |  |   | |  | | |   __   |  |    \   |  |\   \          
                \     /   | |  | | |  |  |  |  | |\  \  |  | \   \       
                 \___/    |_|  |_| |__|  |__|  |_| \__\ |__|  \__/        
                                                                              
                      - O R C A' S   B I G   F R I E N D -                    
                                      &                                       
                       - I N T E G R A L  F E E D E R -                       
                                                                              
 v1 FN, 2020, v2 2021, v3 2022-2024                                           
------------------------------------------------------------------------------


----------------------
SHARK INTEGRAL PACKAGE
----------------------

Number of atoms                             ...     25
Number of basis functions                   ...    750
Number of shells                            ...    268
Maximum angular momentum                    ...      3
Integral batch strategy                     ... SHARK/LIBINT Hybrid
RI-J (if used) integral strategy            ... SPLIT-RIJ (Revised 2003 algorithm where possible)
Printlevel                                  ...      1
Contraction scheme used                     ... SEGMENTED contraction
Prescreening option                         ... SCHWARTZ
   Thresh                                   ... 2.500e-11
   Tcut                                     ... 2.500e-12
   Tpresel                                  ... 2.500e-12 
Coulomb Range Separation                    ... NOT USED
Exchange Range Separation                   ... NOT USED
Multipole approximations                    ... NOT USED
Finite Nucleus Model                        ... NOT USED
CABS basis                                  ... NOT available
Auxiliary Coulomb fitting basis             ... AVAILABLE
   # of basis functions in Aux-J            ...   1187
   # of shells in Aux-J                     ...    365
   Maximum angular momentum in Aux-J        ...      4
Auxiliary J/K fitting basis                 ... NOT available
Auxiliary Correlation fitting basis         ... NOT available
Auxiliary 'external' fitting basis          ... NOT available

Checking pre-screening integrals            ... done (  0.0 sec) Dimension = 268
Check shell pair data                       ... done (  0.0 sec)
Shell pair information
Shell pair cut-off parameter TPreSel        ...   2.5e-12
Total number of shell pairs                 ...     36046
Shell pairs after pre-screening             ...     22035
Total number of primitive shell pairs       ...    118872
Primitive shell pairs kept                  ...     46707
          la=0 lb=0:   4199 shell pairs
          la=1 lb=0:   6017 shell pairs
          la=1 lb=1:   2083 shell pairs
          la=2 lb=0:   3272 shell pairs
          la=2 lb=1:   2394 shell pairs
          la=2 lb=2:    673 shell pairs
          la=3 lb=0:   1484 shell pairs
          la=3 lb=1:   1149 shell pairs
          la=3 lb=2:    616 shell pairs
          la=3 lb=3:    148 shell pairs

Calculating one electron integrals          ... done (  0.0 sec)
Calculating RI/J V-Matrix + Cholesky decomp.... done (  0.1 sec)
Calculating Nuclear repulsion               ... done (  0.0 sec) ENN=   2623.917721077008 Eh

Diagonalization of the overlap matrix:
Smallest eigenvalue                        ... 6.454e-05
Time for diagonalization                   ...    0.101 sec
Threshold for overlap eigenvalues          ... 1.000e-07
Number of eigenvalues below threshold      ... 0
Time for construction of square roots      ...    0.046 sec
Total time needed                          ...    0.153 sec

-------------------
DFT GRID GENERATION
-------------------

General Integration Accuracy     IntAcc      ... 4.388
Radial Grid Type                 RadialGrid  ... OptM3 with GC (2021)
Angular Grid (max. ang.)         AngularGrid ... 4 (Lebedev-302)
Angular grid pruning method      GridPruning ... 4 (adaptive)
Weight generation scheme         WeightScheme... mBecke (2022)
Basis function cutoff            BFCut       ... 1.0000e-11
Integration weight cutoff        WCut        ... 1.0000e-14
Partially contracted basis set               ... off
Rotationally invariant grid construction     ... off
Angular grids for H and He will be reduced by one unit

Total number of grid points                  ...   148753
Total number of batches                      ...     2337
Average number of points per batch           ...       63
Average number of grid points per atom       ...     5950

--------------------
COSX GRID GENERATION
--------------------

GRIDX 1
-------
General Integration Accuracy     IntAcc      ... 3.816
Radial Grid Type                 RadialGrid  ... OptM3 with GC (2021)
Angular Grid (max. ang.)         AngularGrid ... 1 (Lebedev-50)
Angular grid pruning method      GridPruning ... 4 (adaptive)
Weight generation scheme         WeightScheme... mBecke (2022)
Basis function cutoff            BFCut       ... 1.0000e-11
Integration weight cutoff        WCut        ... 1.0000e-14
Partially contracted basis set               ... on
Rotationally invariant grid construction     ... off
Angular grids for H and He will be reduced by one unit

Total number of grid points                  ...    18716
Total number of batches                      ...      158
Average number of points per batch           ...      118
Average number of grid points per atom       ...      749
UseSFitting                                  ... on

GRIDX 2
-------
General Integration Accuracy     IntAcc      ... 4.020
Radial Grid Type                 RadialGrid  ... OptM3 with GC (2021)
Angular Grid (max. ang.)         AngularGrid ... 2 (Lebedev-110)
Angular grid pruning method      GridPruning ... 4 (adaptive)
Weight generation scheme         WeightScheme... mBecke (2022)
Basis function cutoff            BFCut       ... 1.0000e-11
Integration weight cutoff        WCut        ... 1.0000e-14
Partially contracted basis set               ... on
Rotationally invariant grid construction     ... off
Angular grids for H and He will be reduced by one unit

Total number of grid points                  ...    44123
Total number of batches                      ...      359
Average number of points per batch           ...      122
Average number of grid points per atom       ...     1765
UseSFitting                                  ... on

GRIDX 3
-------
General Integration Accuracy     IntAcc      ... 4.338
Radial Grid Type                 RadialGrid  ... OptM3 with GC (2021)
Angular Grid (max. ang.)         AngularGrid ... 3 (Lebedev-194)
Angular grid pruning method      GridPruning ... 4 (adaptive)
Weight generation scheme         WeightScheme... mBecke (2022)
Basis function cutoff            BFCut       ... 1.0000e-11
Integration weight cutoff        WCut        ... 1.0000e-14
Partially contracted basis set               ... on
Rotationally invariant grid construction     ... off
Angular grids for H and He will be reduced by one unit

Total number of grid points                  ...    97698
Total number of batches                      ...      774
Average number of points per batch           ...      126
Average number of grid points per atom       ...     3908
UseSFitting                                  ... on
Initializing property integral containers    ... done (  0.0 sec)

SHARK setup successfully completed in   3.0 seconds

Maximum memory used throughout the entire STARTUP-calculation: 56.9 MB


           ************************************************************
           *        Program running with 20 parallel MPI-processes    *
           *              working on a common directory               *
           ************************************************************
-------------------------------------------------------------------------------
                                 ORCA GUESS
                   Start orbitals & Density for SCF / CASSCF
-------------------------------------------------------------------------------

------------
SCF SETTINGS
------------
Hamiltonian:
 Density Functional     Method          .... DFT(GTOs)
 Exchange Functional    Exchange        .... B88
   X-Alpha parameter    XAlpha          ....  0.666667
   Becke's b parameter  XBeta           ....  0.004200
 Correlation Functional Correlation     .... LYP
 LDA part of GGA corr.  LDAOpt          .... VWN-5
 Gradients option       PostSCFGGA      .... off
 Hybrid DFT is turned on
   Fraction HF Exchange ScalHFX         ....  0.200000
   Scaling of DF-GGA-X  ScalDFX         ....  0.720000
   Scaling of DF-GGA-C  ScalDFC         ....  0.810000
   Scaling of DF-LDA-C  ScalLDAC        ....  1.000000
   Perturbative correction              ....  0.000000
   NL short-range parameter             ....  4.800000
 RI-approximation to the Coulomb term is turned on
   Number of AuxJ basis functions       .... 1187
   RIJ-COSX (HFX calculated with COS-X)).... on


General Settings:
 Integral files         IntName         .... rf_mecn_opt_B3L_C3_P_B
 Hartree-Fock type      HFTyp           .... UHF
 Total Charge           Charge          ....    0
 Multiplicity           Mult            ....    2
 Number of Electrons    NEL             ....  191
 Basis Dimension        Dim             ....  750
 Nuclear Repulsion      ENuc            ....   2623.9177210770 Eh

Convergence Acceleration:
 AO-DIIS                CNVDIIS         .... on
   Start iteration      DIISMaxIt       ....     0
   Startup error        DIISStart       ....  0.200000
   # of expansion vecs  DIISMaxEq       ....     5
   Bias factor          DIISBfac        ....   1.050
   Max. coefficient     DIISMaxC        ....  10.000
 MO-DIIS                CNVKDIIS        .... off
 Trust-Rad. Augm. Hess. CNVTRAH         .... auto
   Auto Start mean grad. ratio tolernc. ....  1.125000
   Auto Start start iteration           ....    50
   Auto Start num. interpolation iter.  ....    10
   Max. Number of Micro iterations      ....    24
   Max. Number of Macro iterations      .... Maxiter - #DIIS iter
   Number of Davidson start vectors     ....     2
   Converg. threshold    (grad. norm)   ....   1.000e-05
   Grad. Scal. Fac. for Micro threshold ....   0.100
   Minimum threshold for Micro iter.    ....   1.000e-02
   NR start threshold (gradient norm)   ....   1.000e-04
   Initial trust radius                 ....   0.400
   Minimum AH scaling param. (alpha)    ....   1.000
   Maximum AH scaling param. (alpha)    .... 1000.000
   Quad. conv. algorithm                .... NR
   White noise on init. David. guess    .... on
   Maximum white noise                  ....   0.010
   Pseudo random numbers                .... off
   Inactive MOs                         .... canonical
   Orbital update algorithm             .... Taylor
   Preconditioner                       .... Diag
   Full preconditioner red. dimension   ....   250
 SOSCF                  CNVSOSCF        .... on
   Start iteration      SOSCFMaxIt      ....   150
   Startup grad/error   SOSCFStart      ....  0.001000
   Hessian update       SOSCFHessUp     .... L-BFGS
 Level Shifting         CNVShift        .... on
   Level shift para.    LevelShift      ....    0.2500
   Turn off err/grad.   ShiftErr        ....    0.0000
 Zerner damping         CNVZerner       .... off
 Static damping         CNVDamp         .... on
   Fraction old density DampFac         ....    0.8500
   Max. Damping (<1)    DampMax         ....    0.9800
   Min. Damping (>=0)   DampMin         ....    0.0000
   Turn off err/grad.   DampErr         ....    0.0300

SCF Procedure:
 Maximum # iterations   MaxIter         ....  1500
 SCF integral mode      SCFMode         .... Direct
   Integral package                     .... SHARK and LIBINT hybrid scheme
 Reset frequency        DirectResetFreq ....    20
 Integral Threshold     Thresh          ....  2.500e-11 Eh
 Primitive CutOff       TCut            ....  2.500e-12 Eh

Convergence Tolerance:
 Convergence Check Mode ConvCheckMode   .... Total+1el-Energy
 Convergence forced     ConvForced      .... 0
 Energy Change          TolE            ....  1.000e-08 Eh
 1-El. energy change                    ....  1.000e-05 Eh
 Orbital Gradient       TolG            ....  1.000e-05
 Orbital Rotation angle TolX            ....  1.000e-05
 DIIS Error             TolErr          ....  5.000e-07

------------------------------
INITIAL GUESS: MODEL POTENTIAL
------------------------------
Loading Hartree-Fock densities                     ... done
Calculating cut-offs                               ... done
Initializing the effective Hamiltonian             ... done
Setting up the integral package (SHARK)            ... done
Starting the Coulomb interaction                   ... done (   0.1 sec)
Making the grid                                    ... done (   0.5 sec)
Mapping shells                                     ... done
Starting the XC term evaluation                    ... done (   0.2 sec)
  promolecular density results
     # of electrons  =    191.000271550
     EX              =   -198.448400289
     EC              =     -7.161497163
     EX+EC           =   -205.609897452
Transforming the Hamiltonian                       ... done (   0.0 sec)
Diagonalizing the Hamiltonian                      ... done (   0.1 sec)
Back transforming the eigenvectors                 ... done (   0.0 sec)
Now organizing SCF variables                       ... done
                      ------------------
                      INITIAL GUESS DONE (   1.1 sec)
                      ------------------
             **** ENERGY FILE WAS UPDATED (rf_mecn_opt_B3L_C3_P_B.en.tmp) ****
Finished Guess after   1.8 sec
Maximum memory used throughout the entire GUESS-calculation: 45.9 MB


           ************************************************************
           *        Program running with 20 parallel MPI-processes    *
           *              working on a common directory               *
           ************************************************************

-------------------------------------------------------------------------------------------
                                      ORCA LEAN-SCF
                              memory conserving SCF solver
-------------------------------------------------------------------------------------------

--------------------
CPCM SOLVATION MODEL
--------------------
CPCM parameters:
  Epsilon                                         ...      35.6880
  Refrac                                          ...       1.3442
  Rsolv                                           ...       1.3000
  Surface type                                    ... GAUSSIAN VDW
  Discretization scheme                           ... Constant charge density
    Threshold for H atoms                         ...       5.0000 (charges/Ang^2)
    Threshold for non-H atoms                     ...       5.0000 (charges/Ang^2)
  Epsilon function type                           ...         CPCM
Solvent:                                          ... ACETONITRILE
SMD-CDS solvent descriptors:
  Soln                                            ...       1.3442
  Soln25                                          ...       1.3416
  Sola                                            ...       0.0700
  Solb                                            ...       0.3200
  Solg                                            ...      41.2500
  Solc                                            ...       0.0000
  Solh                                            ...       0.0000
Radii:
  Scheme                                          ... Element-dependent radii
  Radius for C  used is    3.4960 Bohr (=   1.8500 Ang.)
  Radius for O  used is    4.0969 Bohr (=   2.1680 Ang.)
  Radius for F  used is    3.2692 Bohr (=   1.7300 Ang.)
  Radius for H  used is    2.2677 Bohr (=   1.2000 Ang.)
Calculating surface                               ...        done! (  0.0s)
Cavity surface points                             ...         2173
Cavity Volume                                     ...    2135.3840
Cavity Surface-area                               ...    1122.6499
Calculating surface distance matrix               ...        done! (  0.0s)
Performing Cholesky decomposition & store         ...        done! (  0.1s)
Overall time for CPCM initialization              ...                 0.1s

----------------------------------------D-I-I-S--------------------------------------------
Iteration    Energy (Eh)           Delta-E    RMSDP     MaxDP     DIISErr   Damp  Time(sec)
-------------------------------------------------------------------------------------------
               ***  Starting incremental Fock matrix formation  ***
    1    -1853.0523256014180333     0.00e+00  2.18e-04  1.71e-02  1.58e-01  0.850   6.6
Warning: op=1 Small HOMO/LUMO gap (   0.043) - skipping pre-diagonalization
         Will do a full diagonalization
    2    -1853.2243384393427732    -1.72e-01  2.06e-04  1.56e-02  9.76e-02  0.850   4.4
                               ***Turning on AO-DIIS***
    3    -1853.3110425061527167    -8.67e-02  8.61e-05  4.67e-03  5.59e-02  0.850   3.7
    4    -1853.3622871927905180    -5.12e-02  4.90e-05  2.85e-03  4.03e-02  0.850   3.6
    5    -1853.3985986415477782    -3.63e-02  3.69e-05  3.26e-03  3.33e-02  0.850   3.6
    6    -1853.4275513222596601    -2.90e-02  3.23e-05  3.50e-03  3.02e-02  0.850   3.7
    7    -1853.4518938435626296    -2.43e-02  3.08e-05  3.42e-03  2.55e-02  0.850   3.6
    8    -1853.4726275074267505    -2.07e-02  1.81e-04  2.10e-02  2.02e-02  0.000   3.4
    9    -1853.5810843978547382    -1.08e-01  2.21e-05  2.39e-03  4.63e-03  0.000   3.7
   10    -1853.5813257082659220    -2.41e-04  8.81e-06  1.01e-03  3.78e-03  0.000   3.2
                              *** Initializing SOSCF ***
---------------------------------------S-O-S-C-F--------------------------------------
Iteration    Energy (Eh)           Delta-E    RMSDP     MaxDP     MaxGrad    Time(sec)
--------------------------------------------------------------------------------------
   11    -1853.5814103811540008    -8.47e-05  4.62e-06  6.34e-04  5.77e-04     3.5
               *** Restarting incremental Fock matrix formation ***
   12    -1853.5814480616813853    -3.77e-05  4.90e-06  4.56e-04  3.31e-04     6.2
   13    -1853.5814461757395293     1.89e-06  2.92e-06  3.60e-04  1.00e-03     4.3
   14    -1853.5814520330336563    -5.86e-06  1.42e-06  1.65e-04  8.74e-05     3.9
   15    -1853.5814520378166890    -4.78e-09  5.59e-07  3.72e-05  4.63e-05     3.9
                 **** Energy Check signals convergence ****

               *****************************************************
               *                     SUCCESS                       *
               *           SCF CONVERGED AFTER  15 CYCLES          *
               *****************************************************

Recomputing exchange energy using gridx3       ... done (    7.727 sec)
Old exchange energy                            :    -39.749251225 Eh
New exchange energy                            :    -39.749279173 Eh
Exchange energy change after final integration :     -0.000027948 Eh
Total energy after final integration           :  -1853.581479986 Eh

SMD CDS free energy correction energy :                 3.62113     Kcal/mol
Total Energy after SMD CDS correction =             -1853.575709356 Eh
             **** ENERGY FILE WAS UPDATED (rf_mecn_opt_B3L_C3_P_B.en.tmp) ****

----------------
TOTAL SCF ENERGY
----------------

Total Energy       :      -1853.57570935609647 Eh          -50438.35929 eV

Components:
Nuclear Repulsion  :       2623.91772107700808 Eh           71400.43112 eV
Electronic Energy  :      -4477.48235136143012 Eh         -121838.48893 eV
One Electron Energy:      -7799.23490174779363 Eh         -212227.97114 eV
Two Electron Energy:       3321.75255038636305 Eh           90389.48221 eV
CPCM Dielectric    :         -0.01682175339425 Eh              -0.45774 eV
SMD CDS (Gcds)     :          0.00577062983621 Eh               0.15703 eV

Virial components:
Potential Energy   :      -3699.67306916347570 Eh         -100673.22234 eV
Kinetic Energy     :       1846.09735980737923 Eh           50234.86305 eV
Virial Ratio       :          2.00405089661658

DFT components:
N(Alpha)           :       95.999969664474 electrons
N(Beta)            :       94.999959082462 electrons
N(Total)           :      190.999928746937 electrons
E(X)               :     -158.463148100955 Eh       
E(C)               :       -8.363845306644 Eh       
E(XC)              :     -166.826993407599 Eh       

CPCM Solvation Model Properties:
Surface-charge          :         -0.00937509301695
Corrected charge        :          0.00000000000000
Outlying charge corr.   :          0.00000477717456 Eh               0.00013 eV
Free-energy (cav+disp)  :          0.00577062983621 Eh               0.15703 eV

---------------
SCF CONVERGENCE
---------------

  Last Energy change         ...    4.7830e-09  Tolerance :   1.0000e-08
  Last MAX-Density change    ...    3.7217e-05  Tolerance :   1.0000e-07
  Last RMS-Density change    ...    5.5894e-07  Tolerance :   5.0000e-09
  Last DIIS Error            ...    5.7733e-04  Tolerance :   5.0000e-07
  Last Orbital Gradient      ...    4.6264e-05  Tolerance :   1.0000e-05
  Last Orbital Rotation      ...    4.3460e-05  Tolerance :   1.0000e-05


----------------------
UHF SPIN CONTAMINATION
----------------------

Warning: in a DFT calculation there is little theoretical justification to 
         calculate <S**2> as in Hartree-Fock theory. We will do it anyways
         but you should keep in mind that the values have only limited relevance

Expectation value of <S**2>     :     0.753133
Ideal value S*(S+1) for S=0.5   :     0.750000
Deviation                       :     0.003133

----------------
ORBITAL ENERGIES
----------------
                 SPIN UP ORBITALS
  NO   OCC          E(Eh)            E(eV) 
   0   1.0000     -24.746549      -673.3878 
   1   1.0000     -24.745647      -673.3633 
   2   1.0000     -24.745563      -673.3610 
   3   1.0000     -24.745330      -673.3547 
   4   1.0000     -24.745263      -673.3528 
   5   1.0000     -24.744962      -673.3447 
   6   1.0000     -24.744365      -673.3284 
   7   1.0000     -24.744327      -673.3274 
   8   1.0000     -24.744051      -673.3199 
   9   1.0000     -24.742985      -673.2909 
  10   1.0000     -24.741055      -673.2383 
  11   1.0000     -24.737333      -673.1371 
  12   1.0000     -24.728628      -672.9002 
  13   1.0000     -24.725244      -672.8081 
  14   1.0000     -19.202297      -522.5211 
  15   1.0000     -19.170371      -521.6523 
  16   1.0000     -10.464776      -284.7610 
  17   1.0000     -10.412047      -283.3262 
  18   1.0000     -10.410965      -283.2968 
  19   1.0000     -10.408737      -283.2361 
  20   1.0000     -10.408460      -283.2286 
  21   1.0000     -10.405457      -283.1469 
  22   1.0000     -10.403340      -283.0893 
  23   1.0000     -10.341169      -281.3975 
  24   1.0000      -1.352620       -36.8067 
  25   1.0000      -1.329500       -36.1775 
  26   1.0000      -1.314071       -35.7577 
  27   1.0000      -1.306303       -35.5463 
  28   1.0000      -1.304039       -35.4847 
  29   1.0000      -1.284182       -34.9444 
  30   1.0000      -1.274585       -34.6832 
  31   1.0000      -1.267257       -34.4838 
  32   1.0000      -1.260947       -34.3121 
  33   1.0000      -1.260564       -34.3017 
  34   1.0000      -1.253738       -34.1160 
  35   1.0000      -1.250447       -34.0264 
  36   1.0000      -1.247502       -33.9463 
  37   1.0000      -1.228570       -33.4311 
  38   1.0000      -1.088490       -29.6193 
  39   1.0000      -1.001430       -27.2503 
  40   1.0000      -0.851846       -23.1799 
  41   1.0000      -0.835629       -22.7386 
  42   1.0000      -0.808548       -22.0017 
  43   1.0000      -0.773230       -21.0407 
  44   1.0000      -0.741427       -20.1753 
  45   1.0000      -0.709593       -19.3090 
  46   1.0000      -0.689044       -18.7498 
  47   1.0000      -0.669727       -18.2242 
  48   1.0000      -0.651330       -17.7236 
  49   1.0000      -0.645916       -17.5763 
  50   1.0000      -0.638918       -17.3859 
  51   1.0000      -0.629566       -17.1314 
  52   1.0000      -0.625538       -17.0218 
  53   1.0000      -0.622600       -16.9418 
  54   1.0000      -0.610842       -16.6218 
  55   1.0000      -0.609080       -16.5739 
  56   1.0000      -0.606357       -16.4998 
  57   1.0000      -0.593698       -16.1553 
  58   1.0000      -0.585564       -15.9340 
  59   1.0000      -0.583483       -15.8774 
  60   1.0000      -0.575774       -15.6676 
  61   1.0000      -0.574524       -15.6336 
  62   1.0000      -0.519904       -14.1473 
  63   1.0000      -0.517935       -14.0937 
  64   1.0000      -0.513951       -13.9853 
  65   1.0000      -0.508156       -13.8276 
  66   1.0000      -0.505539       -13.7564 
  67   1.0000      -0.501250       -13.6397 
  68   1.0000      -0.499357       -13.5882 
  69   1.0000      -0.498677       -13.5697 
  70   1.0000      -0.489691       -13.3252 
  71   1.0000      -0.487451       -13.2642 
  72   1.0000      -0.487287       -13.2597 
  73   1.0000      -0.478319       -13.0157 
  74   1.0000      -0.476700       -12.9717 
  75   1.0000      -0.467420       -12.7191 
  76   1.0000      -0.465093       -12.6558 
  77   1.0000      -0.463998       -12.6260 
  78   1.0000      -0.457405       -12.4466 
  79   1.0000      -0.455454       -12.3935 
  80   1.0000      -0.454598       -12.3702 
  81   1.0000      -0.451217       -12.2783 
  82   1.0000      -0.449401       -12.2288 
  83   1.0000      -0.446745       -12.1566 
  84   1.0000      -0.444746       -12.1022 
  85   1.0000      -0.443753       -12.0751 
  86   1.0000      -0.442610       -12.0440 
  87   1.0000      -0.435891       -11.8612 
  88   1.0000      -0.433680       -11.8010 
  89   1.0000      -0.419137       -11.4053 
  90   1.0000      -0.393524       -10.7083 
  91   1.0000      -0.365507        -9.9459 
  92   1.0000      -0.350985        -9.5508 
  93   1.0000      -0.343174        -9.3382 
  94   1.0000      -0.321241        -8.7414 
  95   1.0000      -0.301072        -8.1926 
  96   0.0000      -0.096470        -2.6251 
  97   0.0000      -0.018163        -0.4942 
  98   0.0000      -0.000718        -0.0195 
  99   0.0000       0.000255         0.0070 
 100   0.0000       0.026557         0.7227 
 101   0.0000       0.064284         1.7493 
 102   0.0000       0.073443         1.9985 
 103   0.0000       0.077285         2.1030 
 104   0.0000       0.094317         2.5665 
 105   0.0000       0.098149         2.6708 
 106   0.0000       0.107089         2.9140 

                 SPIN DOWN ORBITALS
  NO   OCC          E(Eh)            E(eV) 
   0   1.0000     -24.746549      -673.3878 
   1   1.0000     -24.745647      -673.3633 
   2   1.0000     -24.745563      -673.3610 
   3   1.0000     -24.745330      -673.3547 
   4   1.0000     -24.745261      -673.3528 
   5   1.0000     -24.744962      -673.3447 
   6   1.0000     -24.744326      -673.3274 
   7   1.0000     -24.744018      -673.3190 
   8   1.0000     -24.742953      -673.2900 
   9   1.0000     -24.740115      -673.2128 
  10   1.0000     -24.740016      -673.2101 
  11   1.0000     -24.737315      -673.1366 
  12   1.0000     -24.727312      -672.8644 
  13   1.0000     -24.725030      -672.8023 
  14   1.0000     -19.202309      -522.5214 
  15   1.0000     -19.170152      -521.6464 
  16   1.0000     -10.464776      -284.7610 
  17   1.0000     -10.412057      -283.3265 
  18   1.0000     -10.410966      -283.2968 
  19   1.0000     -10.408679      -283.2346 
  20   1.0000     -10.408202      -283.2216 
  21   1.0000     -10.405321      -283.1432 
  22   1.0000     -10.403385      -283.0905 
  23   1.0000     -10.325645      -280.9751 
  24   1.0000      -1.352619       -36.8066 
  25   1.0000      -1.329223       -36.1700 
  26   1.0000      -1.313361       -35.7384 
  27   1.0000      -1.306245       -35.5447 
  28   1.0000      -1.303227       -35.4626 
  29   1.0000      -1.281883       -34.8818 
  30   1.0000      -1.268087       -34.5064 
  31   1.0000      -1.266166       -34.4541 
  32   1.0000      -1.260851       -34.3095 
  33   1.0000      -1.260037       -34.2874 
  34   1.0000      -1.253251       -34.1027 
  35   1.0000      -1.250321       -34.0230 
  36   1.0000      -1.246652       -33.9231 
  37   1.0000      -1.226933       -33.3865 
  38   1.0000      -1.088482       -29.6191 
  39   1.0000      -1.001025       -27.2393 
  40   1.0000      -0.850329       -23.1386 
  41   1.0000      -0.827567       -22.5193 
  42   1.0000      -0.803115       -21.8539 
  43   1.0000      -0.772035       -21.0081 
  44   1.0000      -0.737772       -20.0758 
  45   1.0000      -0.708571       -19.2812 
  46   1.0000      -0.688331       -18.7304 
  47   1.0000      -0.665601       -18.1119 
  48   1.0000      -0.650496       -17.7009 
  49   1.0000      -0.645312       -17.5598 
  50   1.0000      -0.638702       -17.3800 
  51   1.0000      -0.627957       -17.0876 
  52   1.0000      -0.624851       -17.0030 
  53   1.0000      -0.620888       -16.8952 
  54   1.0000      -0.609684       -16.5904 
  55   1.0000      -0.607447       -16.5295 
  56   1.0000      -0.605571       -16.4784 
  57   1.0000      -0.592302       -16.1174 
  58   1.0000      -0.583997       -15.8914 
  59   1.0000      -0.580706       -15.8018 
  60   1.0000      -0.572551       -15.5799 
  61   1.0000      -0.569468       -15.4960 
  62   1.0000      -0.517869       -14.0919 
  63   1.0000      -0.514237       -13.9931 
  64   1.0000      -0.508012       -13.8237 
  65   1.0000      -0.505782       -13.7630 
  66   1.0000      -0.501255       -13.6398 
  67   1.0000      -0.499469       -13.5912 
  68   1.0000      -0.498129       -13.5548 
  69   1.0000      -0.494463       -13.4550 
  70   1.0000      -0.489364       -13.3163 
  71   1.0000      -0.486333       -13.2338 
  72   1.0000      -0.484301       -13.1785 
  73   1.0000      -0.476284       -12.9603 
  74   1.0000      -0.474386       -12.9087 
  75   1.0000      -0.465515       -12.6673 
  76   1.0000      -0.463377       -12.6091 
  77   1.0000      -0.462643       -12.5891 
  78   1.0000      -0.455209       -12.3869 
  79   1.0000      -0.454750       -12.3744 
  80   1.0000      -0.453753       -12.3472 
  81   1.0000      -0.450683       -12.2637 
  82   1.0000      -0.447892       -12.1878 
  83   1.0000      -0.445873       -12.1328 
  84   1.0000      -0.444196       -12.0872 
  85   1.0000      -0.442869       -12.0511 
  86   1.0000      -0.441302       -12.0084 
  87   1.0000      -0.435177       -11.8418 
  88   1.0000      -0.432662       -11.7733 
  89   1.0000      -0.416878       -11.3438 
  90   1.0000      -0.390908       -10.6372 
  91   1.0000      -0.364966        -9.9312 
  92   1.0000      -0.348733        -9.4895 
  93   1.0000      -0.342769        -9.3272 
  94   1.0000      -0.317781        -8.6473 
  95   0.0000      -0.145195        -3.9509 
  96   0.0000      -0.094379        -2.5682 
  97   0.0000      -0.016825        -0.4578 
  98   0.0000       0.000400         0.0109 
  99   0.0000       0.002478         0.0674 
 100   0.0000       0.030735         0.8364 
 101   0.0000       0.072720         1.9788 
 102   0.0000       0.076217         2.0740 
 103   0.0000       0.080203         2.1824 
 104   0.0000       0.095497         2.5986 
 105   0.0000       0.098650         2.6844 
*Only the first 10 virtual orbitals were printed.

                    ********************************
                    * MULLIKEN POPULATION ANALYSIS *
                    ********************************

--------------------------------------------
MULLIKEN ATOMIC CHARGES AND SPIN POPULATIONS
--------------------------------------------
   0 C :    0.385032   -0.000798
   1 O :   -0.454219   -0.000464
   2 O :   -0.392083    0.005902
   3 C :    0.412455    0.004474
   4 C :    0.102512    0.849039
   5 C :    0.400133    0.001001
   6 C :    0.338606    0.000571
   7 C :    0.314880    0.000358
   8 C :    0.325645    0.000030
   9 C :    0.476831    0.000013
  10 F :   -0.183250    0.026914
  11 F :   -0.192741    0.004019
  12 F :   -0.162031    0.083596
  13 F :   -0.170033    0.022674
  14 F :   -0.177839    0.001270
  15 F :   -0.173858    0.000699
  16 F :   -0.171315    0.000747
  17 F :   -0.169430   -0.000026
  18 F :   -0.169049    0.000002
  19 F :   -0.166990    0.000002
  20 F :   -0.163451   -0.000005
  21 F :   -0.156033    0.000001
  22 F :   -0.152539    0.000004
  23 F :   -0.153032    0.000002
  24 H :    0.451799   -0.000024
Sum of atomic charges         :   -0.0000000
Sum of atomic spin populations:    1.0000000

-----------------------------------------------------
MULLIKEN REDUCED ORBITAL CHARGES AND SPIN POPULATIONS
-----------------------------------------------------
CHARGE
  0 C s       :     3.164199  s :     3.164199
      pz      :     0.777782  p :     2.231231
      px      :     0.791341
      py      :     0.662108
      dz2     :     0.015339  d :     0.201383
      dxz     :     0.014671
      dyz     :     0.056502
      dx2y2   :     0.050276
      dxy     :     0.064594
      f0      :     0.001745  f :     0.018154
      f+1     :     0.001065
      f-1     :     0.002350
      f+2     :     0.002573
      f-2     :     0.001954
      f+3     :     0.003935
      f-3     :     0.004531

  1 O s       :     3.664130  s :     3.664130
      pz      :     1.726946  p :     4.773543
      px      :     1.691557
      py      :     1.355040
      dz2     :     0.001623  d :     0.013729
      dxz     :     0.001150
      dyz     :     0.002991
      dx2y2   :     0.003090
      dxy     :     0.004874
      f0      :     0.000275  f :     0.002817
      f+1     :     0.000128
      f-1     :     0.000377
      f+2     :     0.000242
      f-2     :     0.000432
      f+3     :     0.000923
      f-3     :     0.000441

  2 O s       :     3.878519  s :     3.878519
      pz      :     1.541232  p :     4.487619
      px      :     1.698113
      py      :     1.248274
      dz2     :     0.003246  d :     0.024662
      dxz     :     0.000307
      dyz     :     0.006497
      dx2y2   :     0.009188
      dxy     :     0.005425
      f0      :     0.000115  f :     0.001283
      f+1     :     0.000012
      f-1     :     0.000222
      f+2     :     0.000222
      f-2     :     0.000029
      f+3     :     0.000290
      f-3     :     0.000393

  3 C s       :     3.100127  s :     3.100127
      pz      :     0.674488  p :     2.202724
      px      :     0.896774
      py      :     0.631462
      dz2     :     0.046552  d :     0.259318
      dxz     :     0.051148
      dyz     :     0.061994
      dx2y2   :     0.045107
      dxy     :     0.054517
      f0      :     0.005325  f :     0.025377
      f+1     :     0.003574
      f-1     :     0.003895
      f+2     :     0.003784
      f-2     :     0.001963
      f+3     :     0.003821
      f-3     :     0.003014

  4 C s       :     3.329257  s :     3.329257
      pz      :     0.613994  p :     2.415177
      px      :     0.902815
      py      :     0.898369
      dz2     :     0.030977  d :     0.137777
      dxz     :     0.040966
      dyz     :     0.033776
      dx2y2   :     0.013107
      dxy     :     0.018951
      f0      :     0.003028  f :     0.015277
      f+1     :     0.004701
      f-1     :     0.003972
      f+2     :     0.000538
      f-2     :     0.000888
      f+3     :     0.001044
      f-3     :     0.001105

  5 C s       :     3.125642  s :     3.125642
      pz      :     0.584139  p :     2.157098
      px      :     0.885249
      py      :     0.687710
      dz2     :     0.071841  d :     0.289401
      dxz     :     0.061071
      dyz     :     0.056339
      dx2y2   :     0.037092
      dxy     :     0.063058
      f0      :     0.004909  f :     0.027726
      f+1     :     0.004312
      f-1     :     0.006184
      f+2     :     0.003265
      f-2     :     0.004254
      f+3     :     0.002602
      f-3     :     0.002200

  6 C s       :     3.148705  s :     3.148705
      pz      :     0.576428  p :     2.202660
      px      :     0.910166
      py      :     0.716066
      dz2     :     0.077665  d :     0.282464
      dxz     :     0.060334
      dyz     :     0.053167
      dx2y2   :     0.033797
      dxy     :     0.057500
      f0      :     0.005990  f :     0.027565
      f+1     :     0.003849
      f-1     :     0.004581
      f+2     :     0.004017
      f-2     :     0.005118
      f+3     :     0.002060
      f-3     :     0.001949

  7 C s       :     3.152661  s :     3.152661
      pz      :     0.588749  p :     2.221544
      px      :     0.925254
      py      :     0.707541
      dz2     :     0.072209  d :     0.283268
      dxz     :     0.060611
      dyz     :     0.059435
      dx2y2   :     0.033169
      dxy     :     0.057844
      f0      :     0.004784  f :     0.027648
      f+1     :     0.004316
      f-1     :     0.006511
      f+2     :     0.003043
      f-2     :     0.004205
      f+3     :     0.002587
      f-3     :     0.002201

  8 C s       :     3.130187  s :     3.130187
      pz      :     0.619224  p :     2.239530
      px      :     0.929691
      py      :     0.690616
      dz2     :     0.057555  d :     0.276978
      dxz     :     0.058838
      dyz     :     0.069674
      dx2y2   :     0.034103
      dxy     :     0.056807
      f0      :     0.003804  f :     0.027660
      f+1     :     0.004903
      f-1     :     0.008088
      f+2     :     0.002219
      f-2     :     0.002377
      f+3     :     0.003720
      f-3     :     0.002548

  9 C s       :     3.027199  s :     3.027199
      pz      :     0.650905  p :     2.113832
      px      :     0.800256
      py      :     0.662672
      dz2     :     0.064617  d :     0.342259
      dxz     :     0.067081
      dyz     :     0.082937
      dx2y2   :     0.061786
      dxy     :     0.065838
      f0      :     0.004871  f :     0.039879
      f+1     :     0.007789
      f-1     :     0.008748
      f+2     :     0.004369
      f-2     :     0.003095
      f+3     :     0.007274
      f-3     :     0.003732

 10 F s       :     3.918843  s :     3.918843
      pz      :     1.899021  p :     5.248853
      px      :     1.883786
      py      :     1.466047
      dz2     :     0.002144  d :     0.014928
      dxz     :     0.000301
      dyz     :     0.002807
      dx2y2   :     0.005684
      dxy     :     0.003991
      f0      :     0.000049  f :     0.000626
      f+1     :     0.000016
      f-1     :     0.000127
      f+2     :     0.000069
      f-2     :     0.000018
      f+3     :     0.000167
      f-3     :     0.000180

 11 F s       :     3.918908  s :     3.918908
      pz      :     1.484356  p :     5.258878
      px      :     1.904495
      py      :     1.870027
      dz2     :     0.006549  d :     0.014340
      dxz     :     0.003296
      dyz     :     0.003675
      dx2y2   :     0.000405
      dxy     :     0.000415
      f0      :     0.000222  f :     0.000614
      f+1     :     0.000131
      f-1     :     0.000181
      f+2     :     0.000036
      f-2     :     0.000038
      f+3     :     0.000003
      f-3     :     0.000003

 12 F s       :     3.923472  s :     3.923472
      pz      :     1.460439  p :     5.221524
      px      :     1.913347
      py      :     1.847738
      dz2     :     0.007981  d :     0.016366
      dxz     :     0.003500
      dyz     :     0.004377
      dx2y2   :     0.000253
      dxy     :     0.000255
      f0      :     0.000319  f :     0.000669
      f+1     :     0.000142
      f-1     :     0.000178
      f+2     :     0.000012
      f-2     :     0.000015
      f+3     :     0.000001
      f-3     :     0.000001

 13 F s       :     3.916466  s :     3.916466
      pz      :     1.710237  p :     5.236668
      px      :     1.903538
      py      :     1.622894
      dz2     :     0.002619  d :     0.016203
      dxz     :     0.001579
      dyz     :     0.006463
      dx2y2   :     0.003044
      dxy     :     0.002498
      f0      :     0.000078  f :     0.000695
      f+1     :     0.000013
      f-1     :     0.000185
      f+2     :     0.000195
      f-2     :     0.000103
      f+3     :     0.000059
      f-3     :     0.000062

 14 F s       :     3.916765  s :     3.916765
      pz      :     1.503508  p :     5.244148
      px      :     1.909886
      py      :     1.830753
      dz2     :     0.006761  d :     0.016228
      dxz     :     0.003234
      dyz     :     0.004834
      dx2y2   :     0.000613
      dxy     :     0.000787
      f0      :     0.000232  f :     0.000697
      f+1     :     0.000107
      f-1     :     0.000241
      f+2     :     0.000050
      f-2     :     0.000059
      f+3     :     0.000005
      f-3     :     0.000004

 15 F s       :     3.917781  s :     3.917781
      pz      :     1.594873  p :     5.239129
      px      :     1.905676
      py      :     1.738580
      dz2     :     0.004423  d :     0.016252
      dxz     :     0.002553
      dyz     :     0.006246
      dx2y2   :     0.001508
      dxy     :     0.001522
      f0      :     0.000116  f :     0.000696
      f+1     :     0.000054
      f-1     :     0.000262
      f+2     :     0.000126
      f-2     :     0.000100
      f+3     :     0.000021
      f-3     :     0.000018

 16 F s       :     3.917802  s :     3.917802
      pz      :     1.605419  p :     5.236490
      px      :     1.905516
      py      :     1.725555
      dz2     :     0.004222  d :     0.016323
      dxz     :     0.002442
      dyz     :     0.006362
      dx2y2   :     0.001666
      dxy     :     0.001631
      f0      :     0.000109  f :     0.000700
      f+1     :     0.000049
      f-1     :     0.000259
      f+2     :     0.000136
      f-2     :     0.000102
      f+3     :     0.000024
      f-3     :     0.000021

 17 F s       :     3.917632  s :     3.917632
      pz      :     1.719289  p :     5.234705
      px      :     1.906705
      py      :     1.608711
      dz2     :     0.002519  d :     0.016394
      dxz     :     0.001476
      dyz     :     0.006512
      dx2y2   :     0.003301
      dxy     :     0.002585
      f0      :     0.000078  f :     0.000700
      f+1     :     0.000010
      f-1     :     0.000179
      f+2     :     0.000203
      f-2     :     0.000098
      f+3     :     0.000063
      f-3     :     0.000069

 18 F s       :     3.917770  s :     3.917770
      pz      :     1.495587  p :     5.234214
      px      :     1.905584
      py      :     1.833043
      dz2     :     0.006976  d :     0.016368
      dxz     :     0.003377
      dyz     :     0.004750
      dx2y2   :     0.000571
      dxy     :     0.000693
      f0      :     0.000243  f :     0.000698
      f+1     :     0.000114
      f-1     :     0.000234
      f+2     :     0.000045
      f-2     :     0.000055
      f+3     :     0.000004
      f-3     :     0.000003

 19 F s       :     3.917276  s :     3.917276
      pz      :     1.821513  p :     5.232752
      px      :     1.902846
      py      :     1.508393
      dz2     :     0.002040  d :     0.016267
      dxz     :     0.000640
      dyz     :     0.005107
      dx2y2   :     0.005087
      dxy     :     0.003392
      f0      :     0.000079  f :     0.000696
      f+1     :     0.000004
      f-1     :     0.000118
      f+2     :     0.000181
      f-2     :     0.000054
      f+3     :     0.000114
      f-3     :     0.000146

 20 F s       :     3.914965  s :     3.914965
      pz      :     1.443210  p :     5.231326
      px      :     1.902597
      py      :     1.885518
      dz2     :     0.008705  d :     0.016447
      dxz     :     0.003893
      dyz     :     0.003445
      dx2y2   :     0.000199
      dxy     :     0.000205
      f0      :     0.000363  f :     0.000713
      f+1     :     0.000167
      f-1     :     0.000158
      f+2     :     0.000009
      f-2     :     0.000013
      f+3     :     0.000001
      f-3     :     0.000001

 21 F s       :     3.913158  s :     3.913158
      pz      :     1.860444  p :     5.225695
[...]
      pz      :     0.000267  p :     0.000507
      px      :     0.000005
      py      :     0.000235
      dz2     :     0.000005  d :     0.000192
      dxz     :     0.000016
      dyz     :     0.000024
      dx2y2   :     0.000147
      dxy     :     0.000000
      f0      :     0.000000  f :     0.000012
      f+1     :     0.000002
      f-1     :     0.000000
      f+2     :     0.000005
      f-2     :     0.000001
      f+3     :     0.000000
      f-3     :     0.000003

 16 F s       :     0.000112  s :     0.000112
      pz      :     0.000368  p :     0.000735
      px      :     0.000008
      py      :     0.000359
      dz2     :     0.000007  d :     0.000184
      dxz     :     0.000009
      dyz     :     0.000036
      dx2y2   :     0.000136
      dxy     :    -0.000003
      f0      :     0.000000  f :     0.000012
      f+1     :     0.000003
      f-1     :     0.000001
      f+2     :     0.000007
      f-2     :     0.000001
      f+3     :     0.000000
      f-3     :     0.000002

 17 F s       :     0.000031  s :     0.000031
      pz      :     0.000043  p :    -0.000101
      px      :    -0.000057
      py      :    -0.000086
      dz2     :    -0.000000  d :     0.000023
      dxz     :     0.000003
      dyz     :     0.000003
      dx2y2   :     0.000003
      dxy     :     0.000014
      f0      :    -0.000000  f :     0.000001
      f+1     :    -0.000000
      f-1     :     0.000000
      f+2     :     0.000000
      f-2     :     0.000001
      f+3     :     0.000001
      f-3     :    -0.000000

 18 F s       :     0.000004  s :     0.000004
      pz      :    -0.000002  p :     0.000222
      px      :     0.000061
      py      :     0.000163
      dz2     :     0.000007  d :     0.000042
      dxz     :     0.000018
      dyz     :     0.000001
      dx2y2   :    -0.000002
      dxy     :     0.000018
      f0      :     0.000001  f :     0.000002
      f+1     :     0.000001
      f-1     :     0.000000
      f+2     :    -0.000000
      f-2     :     0.000001
      f+3     :     0.000000
      f-3     :     0.000000

 19 F s       :     0.000002  s :     0.000002
      pz      :     0.000013  p :    -0.000043
      px      :    -0.000013
      py      :    -0.000043
      dz2     :    -0.000000  d :     0.000007
      dxz     :     0.000003
      dyz     :     0.000001
      dx2y2   :     0.000004
      dxy     :    -0.000001
      f0      :     0.000000  f :     0.000001
      f+1     :     0.000000
      f-1     :     0.000000
      f+2     :     0.000000
      f-2     :     0.000000
      f+3     :    -0.000000
      f-3     :     0.000000

 20 F s       :     0.000000  s :     0.000000
      pz      :    -0.000034  p :     0.000065
      px      :     0.000002
      py      :     0.000097
      dz2     :     0.000002  d :     0.000014
      dxz     :     0.000003
      dyz     :     0.000007
      dx2y2   :     0.000002
      dxy     :    -0.000000
      f0      :     0.000000  f :     0.000001
      f+1     :     0.000000
      f-1     :     0.000000
      f+2     :     0.000000
      f-2     :    -0.000000
      f+3     :    -0.000000
      f-3     :     0.000000

 21 F s       :    -0.000001  s :    -0.000001
      pz      :     0.000004  p :    -0.000014
      px      :    -0.000011
      py      :    -0.000007
      dz2     :     0.000000  d :     0.000002
      dxz     :    -0.000000
      dyz     :     0.000001
      dx2y2   :     0.000000
      dxy     :     0.000001
      f0      :     0.000000  f :     0.000000
      f+1     :     0.000000
      f-1     :     0.000000
      f+2     :     0.000000
      f-2     :    -0.000000
      f+3     :     0.000000
      f-3     :     0.000000

 22 F s       :     0.000011  s :     0.000011
      pz      :    -0.000000  p :     0.000205
      px      :     0.000206
      py      :    -0.000000
      dz2     :     0.000001  d :     0.000008
      dxz     :     0.000001
      dyz     :     0.000000
      dx2y2   :     0.000004
      dxy     :     0.000003
      f0      :     0.000000  f :     0.000000
      f+1     :     0.000000
      f-1     :     0.000000
      f+2     :     0.000000
      f-2     :     0.000000
      f+3     :    -0.000000
      f-3     :     0.000000

 23 F s       :     0.000000  s :     0.000000
      pz      :    -0.000005  p :     0.000014
      px      :     0.000009
      py      :     0.000010
      dz2     :     0.000000  d :     0.000003
      dxz     :     0.000002
      dyz     :     0.000001
      dx2y2   :    -0.000000
      dxy     :    -0.000000
      f0      :     0.000000  f :     0.000000
      f+1     :     0.000000
      f-1     :     0.000000
      f+2     :     0.000000
      f-2     :     0.000000
      f+3     :    -0.000000
      f-3     :    -0.000000

 24 H s       :     0.000408  s :     0.000408
      pz      :    -0.000010  p :    -0.000015
      px      :    -0.000001
      py      :    -0.000005



                      *****************************
                      * MAYER POPULATION ANALYSIS *
                      *****************************

  NA   - Mulliken gross atomic population
  ZA   - Total nuclear charge
  QA   - Mulliken gross atomic charge
  VA   - Mayer's total valence
  BVA  - Mayer's bonded valence
  FA   - Mayer's free valence

  ATOM       NA         ZA         QA         VA         BVA        FA
  0 C      5.7657     6.0000     0.2343     4.3647     4.3647     0.0000
  1 O      8.3535     8.0000    -0.3535     2.1665     2.1665     0.0000
  2 O      8.2867     8.0000    -0.2867     2.2050     2.2050     0.0000
  3 C      5.5602     6.0000     0.4398     4.1178     4.1149     0.0029
  4 C      5.8939     6.0000     0.1061     3.8470     3.2768     0.5702
  5 C      5.6140     6.0000     0.3860     4.2408     4.2380     0.0029
  6 C      5.6818     6.0000     0.3182     4.1053     4.1045     0.0008
  7 C      5.6897     6.0000     0.3103     4.1224     4.1224     0.0000
  8 C      5.6745     6.0000     0.3255     4.1709     4.1709     0.0000
  9 C      5.5241     6.0000     0.4759     4.5123     4.5123     0.0000
 10 F      9.1908     9.0000    -0.1908     1.1033     1.1022     0.0011
 11 F      9.1829     9.0000    -0.1829     1.1211     1.1208     0.0003
 12 F      9.1450     9.0000    -0.1450     1.1973     1.1852     0.0120
 13 F      9.1757     9.0000    -0.1757     1.1359     1.1356     0.0003
 14 F      9.1716     9.0000    -0.1716     1.1402     1.1402     0.0001
 15 F      9.1723     9.0000    -0.1723     1.1501     1.1501     0.0000
 16 F      9.1724     9.0000    -0.1724     1.1469     1.1469     0.0000
 17 F      9.1678     9.0000    -0.1678     1.1527     1.1527     0.0000
 18 F      9.1681     9.0000    -0.1681     1.1509     1.1509     0.0000
 19 F      9.1658     9.0000    -0.1658     1.1535     1.1535     0.0000
 20 F      9.1628     9.0000    -0.1628     1.1549     1.1549     0.0000
 21 F      9.1547     9.0000    -0.1547     1.1636     1.1636     0.0000
 22 F      9.1524     9.0000    -0.1524     1.1677     1.1677     0.0000
 23 F      9.1526     9.0000    -0.1526     1.1664     1.1664     0.0000
 24 H      0.6207     1.0000     0.3793     0.8808     0.8808     0.0000

  Mayer bond orders larger than 0.100000
B(  0-C ,  1-O ) :   1.2986 B(  0-C ,  2-O ) :   2.0868 B(  0-C ,  3-C ) :   0.8935 
B(  1-O , 24-H ) :   0.8231 B(  3-C ,  4-C ) :   1.0198 B(  3-C , 10-F ) :   1.0733 
B(  3-C , 11-F ) :   1.0863 B(  4-C ,  5-C ) :   1.0512 B(  4-C , 12-F ) :   1.1242 
B(  5-C ,  6-C ) :   0.9231 B(  5-C , 13-F ) :   1.0712 B(  5-C , 14-F ) :   1.0901 
B(  6-C ,  7-C ) :   0.9220 B(  6-C , 15-F ) :   1.0822 B(  6-C , 16-F ) :   1.0750 
B(  7-C ,  8-C ) :   0.9232 B(  7-C , 17-F ) :   1.0828 B(  7-C , 18-F ) :   1.0882 
B(  8-C ,  9-C ) :   0.9673 B(  8-C , 19-F ) :   1.0870 B(  8-C , 20-F ) :   1.0963 
B(  9-C , 21-F ) :   1.1442 B(  9-C , 22-F ) :   1.1480 B(  9-C , 23-F ) :   1.1555 


-------
TIMINGS
-------

Total SCF time: 0 days 0 hours 0 min 36 sec 

Total time                  ....      36.157 sec
Sum of individual times     ....      34.919 sec  ( 96.6%)

SCF preparation             ....       1.220 sec  (  3.4%)
Fock matrix formation       ....      29.453 sec  ( 81.5%)
  Startup                   ....       0.187 sec  (  0.6% of F)
  Split-RI-J                ....       1.854 sec  (  6.3% of F)
  Chain of spheres X        ....      21.134 sec  ( 71.8% of F)
  XC integration            ....       4.328 sec  ( 14.7% of F)
    XC Preparation          ....       0.000 sec  (  0.0% of XC)
    Basis function eval.    ....       0.405 sec  (  9.4% of XC)
    Density eval.           ....       0.874 sec  ( 20.2% of XC)
    XC-Functional eval.     ....       0.039 sec  (  0.9% of XC)
    XC-Potential eval.      ....       0.977 sec  ( 22.6% of XC)
  CPCM terms                ....       1.569 sec  (  5.3% of F)
Diagonalization             ....       0.000 sec  (  0.0%)
Density matrix formation    ....       0.371 sec  (  1.0%)
Total Energy calculation    ....       0.338 sec  (  0.9%)
Population analysis         ....       0.451 sec  (  1.2%)
Orbital Transformation      ....       0.425 sec  (  1.2%)
Orbital Orthonormalization  ....       0.000 sec  (  0.0%)
DIIS solution               ....       0.581 sec  (  1.6%)
SOSCF solution              ....       2.079 sec  (  5.8%)
Finished LeanSCF after  36.5 sec

Maximum memory used throughout the entire LEANSCF-calculation: 110.3 MB


-------------------------------------------------------------------------------
                          DFT DISPERSION CORRECTION                            
                                                                               
                              DFTD3 V3.1  Rev 1                                
                          USING Becke-Johnson damping                          
-------------------------------------------------------------------------------
The B3LYP functional is recognized
Active option DFTDOPT                   ...         4   

molecular C6(AA) [au] = 6514.429033 


            DFT-D V3
 parameters
 s6 scaling factor         :     1.0000 
 a1 scaling factor         :     0.3981 
 s8 scaling factor         :     1.9889 
 a2 scaling factor         :     4.4211 
 ad hoc parameters k1-k3   :    16.0000     1.3333    -4.0000 

 Edisp/kcal,au: -26.907250461710  -0.042879428445 
 E6   /kcal   : -12.803028338 
 E8   /kcal   : -14.104222123 
 % E8         :  52.417924096 

-------------------------   ----------------
Dispersion correction           -0.042879428
-------------------------   ----------------


-------------------------   --------------------
FINAL SINGLE POINT ENERGY     -1853.734957204666
-------------------------   --------------------

                                *** OPTIMIZATION RUN DONE ***



           ************************************************************
           *        Program running with 20 parallel MPI-processes    *
           *              working on a common directory               *
           ************************************************************

------------------------------------------------------------------------------
                              ORCA PROPERTY CALCULATIONS
------------------------------------------------------------------------------

GBWName                                 ... rf_mecn_opt_B3L_C3_P_B.gbw
Number of atoms                         ...     25
Number of basis functions               ...    750
Max core memory                         ...   8000 MB

Electric properties:
Dipole moment                           ... YES
Quadrupole moment                       ...  NO
Static polarizability (Dipole/Dipole)   ...  NO
Static polarizability (Dipole/Quad.)    ...  NO
Static polarizability (Quad./Quad.)     ...  NO
Static polarizability (Velocity)        ...  NO

Atomic electric properties:
Dipole moment                           ...  NO
Quadrupole moment                       ...  NO
Static polarizability                   ...  NO

Choice of electric origin               ... Center of mass
Position of electric origin             ...    -0.266231    -0.335500    -0.038009

General magnetic properties:
Magnetizability                         ...  NO

EPR properties:
g-Tensor (aka g-matrix)                 ...  NO
Zero-Field splitting spin-orbit         ...  NO
Zero-field splitting spin-spin          ...  NO
Hyperfine couplings                     ...  NO (   0 nuclei)
Quadrupole couplings                    ...  NO (   0 nuclei)
Contact density                         ...  NO (   0 nuclei)

NMR properties:
Chemical shifts                         ...  NO (   0 nuclei)
Spin-rotation constants                 ...  NO (   0 nuclei)
Spin-spin couplings                     ...  NO (   0 nuclei,    0 pairs)

Choice of magnetic origin               ... GIAO
Position of magnetic origin             ...     0.000000     0.000000     0.000000

Properties with geometric perturbations:
SCF Hessian                             ...  NO
IR spectrum                             ...  NO
VCD spectrum                            ...  NO
X-ray spectroscopy properties:
SCF XES/XAS/RIXS spectra                ...  NO


-------------
DIPOLE MOMENT
-------------

Method             : SCF
Type of density    : Electron Density
Multiplicity       :   2
Irrep              :   0
Energy             : -1853.6920777762209127 Eh
Relativity type    : 
Basis              : AO
                                X                 Y                 Z
Electronic contribution:    -14.691867536      -1.679917201       1.053905419
Nuclear contribution   :     15.724490209       1.505418940      -1.953817813
                        -----------------------------------------
Total Dipole Moment    :      1.032622673      -0.174498260      -0.899912394
                        -----------------------------------------
Magnitude (a.u.)       :      1.380797430
Magnitude (Debye)      :      3.509708147



--------------------
Rotational spectrum 
--------------------
 
Rotational constants in cm-1:             0.020376             0.004060             0.003979 
Rotational constants in MHz :           610.871913           121.717781           119.283704 

Dipole components along the rotational axes: 
x,y,z [a.u.] :     1.047589    -0.276399    -0.856016 
x,y,z [Debye]:     2.662759    -0.702551    -2.175819 

 

Dipole moment calculation done in   0.1 sec 

Maximum memory used throughout the entire PROP-calculation: 58.3 MB

--------------------------------
SUGGESTED CITATIONS FOR THIS RUN
--------------------------------

Below you find a list of papers that are relevant to this ORCA run
We neither can nor want to force you to cite these papers, but we appreciate if you do
You receive ORCA, which is the product of decades of hard work by many enthusiastic individuals, for free
The only thing we kindly ask in return is that you cite our papers,
We deeply appreciate it, if you show your appreciation for ORCA by not just citing the generic ORCA reference.

Please note that relegating all ORCA citations to the supporting information does *not* help us.
SI sections are not indexed - citations you put there will not count into any citation statistics
But we need these citations in order to attract the funding resources that allow us to do what we are doing

Therefore, if you are a happy ORCA user, please consider citing a few of the papers listed below in the main body of your paper

In addition to the list printed below, the program has created the file rf_mecn_opt_B3L_C3_P_B.bibtex that contains the list in bibtex format
You can import this file easily into all common literature databanks and citation aid programs


List of essential papers. We consider these as the minimum necessary citations

  1. Neese,F.
     Software update: the ORCA program system, version 5.0
     WIRES Comput. Molec. Sci., 2022 12(1)e1606
     doi.org/10.1002/wcms.1606

List of papers to cite with high priority. The work reported in these papers was absolutely
necessary for this run to complete.
Our perspective: the developers of density functionals and basis sets usually get cited in chemistry papers
Good! But without the algorithms to do something with them, the functionals or basis sets would not do anything.
Hence, in our opinion, the algorithm design and method developments papers are equally worthy of getting cited

  1. Neese,F.
     An improvement of the resolution of the identity approximation for the formation of the Coulomb matrix
     J. Comp. Chem., 2003 24(14)1740-1747
     doi.org/10.1002/jcc.10318
  2. Neese,F.; Wennmohs,F.; Hansen,A.; Becker,U.
     Efficient, approximate and parallel Hartree-Fock and hybrid DFT calculations. A 'chain-of-spheres' algorithm for the Hartree-Fock exchange
     Chem. Phys., 2009 356(1-3)98-109
     doi.org/10.1016/j.chemphys.2008.10.036
  3. Garcia-Rates,M.; Neese,F.
     Effect of the Solute Cavity on the Solvation Energy and its Derivatives within the Framework of the Gaussian Charge Scheme
     J. Comput. Chem., 2020 41 922-939
     doi.org/10.1002/jcc.26139
  4. Helmich-Paris,B.; de Souza,B.; Neese,F.; Izsák,R.
     An improved chain of spheres for exchange algorithm
     J. Chem. Phys., 2021 155 104109
     doi.org/doi: 10.1063/5.0058766.
  5. Neese,F.
     The SHARK Integral Generation and Digestion System
     J. Comp. Chem., 2022  1-16
     doi.org/10.1002/jcc.26942
  6. Grimme,S.; Antony,J.; Ehrlich,S.; Krieg,H.
     A consistent and accurate ab initio parametrization of density functional dispersion correction (DFT-D) for the 94 elements H-Pu
     J. Chem. Phys., 2010 132 154104
     doi.org/10.1063/1.3382344
  7. Grimme,S.; Ehrlich,S.; Goerigk,L.
     Effect of the damping function in dispersion corrected density functional theory
     J. Comput. Chem., 2011 32(7)1456-1465
     doi.org/10.1002/jcc.21759

List of suggested additional citations. These are papers that are important in the 'surrounding' of 
of this run, or papers that preceded the highly important papers. If you like your results we are grateful for a citation.

  1. Izsak,R.; Neese,F.
     An overlap fitted chain of spheres exchange method
     J. Chem. Phys., 2011 135 144105
     doi.org/10.1063/1.3646921
  2. Izsak,R.; Hansen,A.; Neese,F.
     The resolution of identity and chain of spheres approximations for the LPNO-CCSD singles Fock term
     Molec. Phys., 2012 110 2413-2417
     doi.org/10.1080/00268976.2012.687466
  3. Neese,F.
     The ORCA program system
     WIRES Comput. Molec. Sci., 2012 2(1)73-78
     doi.org/10.1002/wcms.81
  4. Izsak,R.; Neese,F.; Klopper,W.
     Robust fitting techniques in the chain of spheres approximation to the Fock exchange: The role of the complementary space
     J. Chem. Phys., 2013 139 
     doi.org/10.1063/1.4819264
  5. Neese,F.
     Software update: the ORCA program system, version 4.0
     WIRES Comput. Molec. Sci., 2018 8(1)1-6
     doi.org/10.1002/wcms.1327
  6. Neese,F.; Wennmohs,F.; Becker,U.; Riplinger,C.
     The ORCA quantum chemistry program package
     J. Chem. Phys., 2020 152 Art. No. L224108
     doi.org/10.1063/5.0004608

List of optional additional citations

  1. Neese,F.
     Approximate second-order SCF convergence for spin unrestricted wavefunctions
     Chem. Phys. Lett., 2000 325(1-3)93-98
     doi.org/10.1016/s0009-2614(00)00662-x

Timings for individual modules:

Sum of individual times          ...     3999.193 sec (=  66.653 min)
Startup calculation              ...      188.486 sec (=   3.141 min)   4.7 %
SCF iterations                   ...     2793.681 sec (=  46.561 min)  69.9 %
Property calculations            ...        0.928 sec (=   0.015 min)   0.0 %
SCF Gradient evaluation          ...     1015.148 sec (=  16.919 min)  25.4 %
Geometry relaxation              ...        0.950 sec (=   0.016 min)   0.0 %
                             ****ORCA TERMINATED NORMALLY****
TOTAL RUN TIME: 0 days 1 hours 7 minutes 13 seconds 991 msec
