
                                 *****************
                                 * O   R   C   A *
                                 *****************

                                            #,                                       
                                            ###                                      
                                            ####                                     
                                            #####                                    
                                            ######                                   
                                           ########,                                 
                                     ,,################,,,,,                         
                               ,,#################################,,                 
                          ,,##########################################,,             
                       ,#########################################, ''#####,          
                    ,#############################################,,   '####,        
                  ,##################################################,,,,####,       
                ,###########''''           ''''###############################       
              ,#####''   ,,,,##########,,,,          '''####'''          '####       
            ,##' ,,,,###########################,,,                        '##       
           ' ,,###''''                  '''############,,,                           
         ,,##''                                '''############,,,,        ,,,,,,###''
      ,#''                                            '''#######################'''  
     '                                                          ''''####''''         
             ,#######,   #######,   ,#######,      ##                                
            ,#'     '#,  ##    ##  ,#'     '#,    #''#        ######   ,####,        
            ##       ##  ##   ,#'  ##            #'  '#       #        #'  '#        
            ##       ##  #######   ##           ,######,      #####,   #    #        
            '#,     ,#'  ##    ##  '#,     ,#' ,#      #,         ##   #,  ,#        
             '#######'   ##     ##  '#######'  #'      '#     #####' # '####'        



                  #######################################################
                  #                        -***-                        #
                  #          Department of theory and spectroscopy      #
                  #    Directorship and core code : Frank Neese         #
                  #        Max Planck Institute fuer Kohlenforschung    #
                  #                Kaiser Wilhelm Platz 1               #
                  #                 D-45470 Muelheim/Ruhr               #
                  #                      Germany                        #
                  #                                                     #
                  #                  All rights reserved                #
                  #                        -***-                        #
                  #######################################################


                         Program Version 5.0.3 -  RELEASE  -


 With contributions from (in alphabetic order):
   Daniel Aravena         : Magnetic Suceptibility
   Michael Atanasov       : Ab Initio Ligand Field Theory (pilot matlab implementation)
   Alexander A. Auer      : GIAO ZORA, VPT2 properties, NMR spectrum
   Ute Becker             : Parallelization
   Giovanni Bistoni       : ED, misc. LED, open-shell LED, HFLD
   Martin Brehm           : Molecular dynamics
   Dmytro Bykov           : SCF Hessian
   Vijay G. Chilkuri      : MRCI spin determinant printing, contributions to CSF-ICE
   Dipayan Datta          : RHF DLPNO-CCSD density
   Achintya Kumar Dutta   : EOM-CC, STEOM-CC
   Dmitry Ganyushin       : Spin-Orbit,Spin-Spin,Magnetic field MRCI
   Miquel Garcia          : C-PCM and meta-GGA Hessian, CC/C-PCM, Gaussian charge scheme
   Yang Guo               : DLPNO-NEVPT2, F12-NEVPT2, CIM, IAO-localization
   Andreas Hansen         : Spin unrestricted coupled pair/coupled cluster methods
   Benjamin Helmich-Paris : MC-RPA, TRAH-SCF, COSX integrals
   Lee Huntington         : MR-EOM, pCC
   Robert Izsak           : Overlap fitted RIJCOSX, COSX-SCS-MP3, EOM
   Marcus Kettner         : VPT2
   Christian Kollmar      : KDIIS, OOCD, Brueckner-CCSD(T), CCSD density, CASPT2, CASPT2-K
   Simone Kossmann        : Meta GGA functionals, TD-DFT gradient, OOMP2, MP2 Hessian
   Martin Krupicka        : Initial AUTO-CI
   Lucas Lang             : DCDCAS
   Marvin Lechner         : AUTO-CI (C++ implementation), FIC-MRCC
   Dagmar Lenk            : GEPOL surface, SMD
   Dimitrios Liakos       : Extrapolation schemes; Compound Job, initial MDCI parallelization
   Dimitrios Manganas     : Further ROCIS development; embedding schemes
   Dimitrios Pantazis     : SARC Basis sets
   Anastasios Papadopoulos: AUTO-CI, single reference methods and gradients
   Taras Petrenko         : DFT Hessian,TD-DFT gradient, ASA, ECA, R-Raman, ABS, FL, XAS/XES, NRVS
   Peter Pinski           : DLPNO-MP2, DLPNO-MP2 Gradient
   Christoph Reimann      : Effective Core Potentials
   Marius Retegan         : Local ZFS, SOC
   Christoph Riplinger    : Optimizer, TS searches, QM/MM, DLPNO-CCSD(T), (RO)-DLPNO pert. Triples
   Tobias Risthaus        : Range-separated hybrids, TD-DFT gradient, RPA, STAB
   Michael Roemelt        : Original ROCIS implementation
   Masaaki Saitow         : Open-shell DLPNO-CCSD energy and density
   Barbara Sandhoefer     : DKH picture change effects
   Avijit Sen             : IP-ROCIS
   Kantharuban Sivalingam : CASSCF convergence, NEVPT2, FIC-MRCI
   Bernardo de Souza      : ESD, SOC TD-DFT
   Georgi Stoychev        : AutoAux, RI-MP2 NMR, DLPNO-MP2 response
   Willem Van den Heuvel  : Paramagnetic NMR
   Boris Wezisla          : Elementary symmetry handling
   Frank Wennmohs         : Technical directorship


 We gratefully acknowledge several colleagues who have allowed us to
 interface, adapt or use parts of their codes:
   Stefan Grimme, W. Hujo, H. Kruse, P. Pracht,  : VdW corrections, initial TS optimization,
                  C. Bannwarth, S. Ehlert          DFT functionals, gCP, sTDA/sTD-DF
   Ed Valeev, F. Pavosevic, A. Kumar             : LibInt (2-el integral package), F12 methods
   Garnet Chan, S. Sharma, J. Yang, R. Olivares  : DMRG
   Ulf Ekstrom                                   : XCFun DFT Library
   Mihaly Kallay                                 : mrcc  (arbitrary order and MRCC methods)
   Jiri Pittner, Ondrej Demel                    : Mk-CCSD
   Frank Weinhold                                : gennbo (NPA and NBO analysis)
   Christopher J. Cramer and Donald G. Truhlar   : smd solvation model
   Lars Goerigk                                  : TD-DFT with DH, B97 family of functionals
   V. Asgeirsson, H. Jonsson                     : NEB implementation
   FAccTs GmbH                                   : IRC, NEB, NEB-TS, DLPNO-Multilevel, CI-OPT
                                                   MM, QMMM, 2- and 3-layer-ONIOM, Crystal-QMMM,
                                                   LR-CPCM, SF, NACMEs, symmetry and pop. for TD-DFT,
                                                   nearIR, NL-DFT gradient (VV10), updates on ESD,
                                                   ML-optimized integration grids
   S Lehtola, MJT Oliveira, MAL Marques          : LibXC Library
   Liviu Ungur et al                             : ANISO software


 Your calculation uses the libint2 library for the computation of 2-el integrals
 For citations please refer to: http://libint.valeyev.net

 Your ORCA version has been built with support for libXC version: 5.1.0
 For citations please refer to: https://tddft.org/programs/libxc/

 This ORCA versions uses:
   CBLAS   interface :  Fast vector & matrix operations
   LAPACKE interface :  Fast linear algebra routines
   SCALAPACK package :  Parallel linear algebra routines
   Shared memory     :  Shared parallel matrices
   BLAS/LAPACK       :  OpenBLAS 0.3.15  USE64BITINT DYNAMIC_ARCH NO_AFFINITY SkylakeX SINGLE_THREADED
        Core in use  :  SkylakeX
   Copyright (c) 2011-2014, The OpenBLAS Project


Your calculation utilizes the atom-pairwise dispersion correction
with the Becke-Johnson damping scheme (D3BJ)
Cite in your paper:
S.Grimme, S.Ehrlich, L.Goerigk, J Comput Chem, (2011), 32, 1456–1465 
S.Grimme, J.Antony, S.Ehrlich and H.Krieg, J.Chem.Phys., 132, (2010), 154104 
   

Your calculation utilizes the SMD solvation module
Please cite in your paper:
A.V. Marenich, C.J. Cramer, D.G. Truhlar J. Phys. Chem. B, 113, (2009), 6378 

================================================================================

----- Orbital basis set information -----
Your calculation utilizes the basis: def2-TZVP
   F. Weigend and R. Ahlrichs, Phys. Chem. Chem. Phys. 7, 3297 (2005).

----- AuxJ basis set information -----
Your calculation utilizes the auxiliary basis: def2/J
   F. Weigend, Phys. Chem. Chem. Phys. 8, 1057 (2006).

================================================================================
                                        WARNINGS
                       Please study these warnings very carefully!
================================================================================


WARNING: your system is open-shell and RHF/RKS was chosen
  ===> : WILL SWITCH to UHF/UKS


WARNING: Geometry Optimization
  ===> : Switching off AutoStart
         For restart on a previous wavefunction, please use MOREAD

INFO   : the flag for use of the SHARK integral package has been found!

================================================================================
                                       INPUT FILE
================================================================================
NAME = rf_mecn_opt_B3L_C2_D_B.inp
|  1> !B3LYP def2-TZVP opt d3 TightSCF SlowConv defgrid2
|  2>  
|  3> %pal
|  4> nprocs 20
|  5> end
|  6>  
|  7> %scf
|  8> MaxIter 1500
|  9> end
| 10>  
| 11> %maxcore 8000
| 12>  
| 13> !CPCM
| 14> %cpcm smd true
| 15> SMDsolvent "ACETONITRILE"
| 16> end
| 17>  
| 18> * xyz -1 2
| 19> 6        4.790427000     -0.033865800     -0.529943200
| 20> 8        5.449345000     -1.206924000     -0.894594600
| 21> 8        4.978223000      1.323071000     -0.737377200
| 22> 6        3.506687600     -0.338741600      0.376153800
| 23> 6        2.222300000      0.400524800     -0.110681600
| 24> 6        0.900506800     -0.386389800      0.175703000
| 25> 6       -0.395261200      0.487294000      0.065549000
| 26> 6       -1.705693600     -0.364773800     -0.068373600
| 27> 6       -3.005136200      0.445344800      0.258164000
| 28> 6       -4.319880200     -0.214526000     -0.270540800
| 29> 9        3.741061800      0.055285800      1.689948800
| 30> 9        2.125696800      1.616867800      0.483236600
| 31> 9        2.314152400      0.589704000     -1.455769200
| 32> 9        0.794028800     -1.413561400     -0.700839000
| 33> 9        0.958350600     -0.884509000      1.435093400
| 34> 9       -0.498373400      1.260265600      1.173340200
| 35> 9       -0.299075000      1.289512600     -1.020910800
| 36> 9       -1.641790400     -1.418189000      0.779523800
| 37> 9       -1.792381400     -0.831391600     -1.336863600
| 38> 9       -2.918792200      1.679227200     -0.295171200
| 39> 9       -3.119771000      0.573779800      1.598579800
| 40> 9       -4.383115600     -1.504377600      0.089127600
| 41> 9       -5.365669800      0.430528600      0.260394200
| 42> 9       -4.396020400     -0.128550600     -1.602941800
| 43> *
| 44> 
| 45>                          ****END OF INPUT****
================================================================================

                       *****************************
                       * Geometry Optimization Run *
                       *****************************

Geometry optimization settings:
Update method            Update   .... BFGS
Choice of coordinates    CoordSys .... Z-matrix Internals
Initial Hessian          InHess   .... Almoef's Model

Convergence Tolerances:
Energy Change            TolE     ....  5.0000e-06 Eh
Max. Gradient            TolMAXG  ....  3.0000e-04 Eh/bohr
RMS Gradient             TolRMSG  ....  1.0000e-04 Eh/bohr
Max. Displacement        TolMAXD  ....  4.0000e-03 bohr
RMS Displacement         TolRMSD  ....  2.0000e-03 bohr
Strict Convergence                ....  False
------------------------------------------------------------------------------
                        ORCA OPTIMIZATION COORDINATE SETUP
------------------------------------------------------------------------------

The optimization will be done in new redundant internal coordinates
Making redundant internal coordinates   ...  (new redundants) done
Evaluating the initial hessian          ...  (Almloef) done
Evaluating the coordinates              ...  done
Calculating the B-matrix                .... done
Calculating the G-matrix                .... done
Diagonalizing the G-matrix              .... done
Small eigenvalue found = 5.964e-03
Small eigenvalue found = 1.608e-02
The first mode is                       ....   54
The number of degrees of freedom        ....   66

    -----------------------------------------------------------------
                    Redundant Internal Coordinates


    -----------------------------------------------------------------
         Definition                    Initial Value    Approx d2E/dq
    -----------------------------------------------------------------
      1. B(O   1,C   0)                  1.3940         0.551454   
      2. B(O   2,C   0)                  1.3855         0.568952   
      3. B(C   3,C   0)                  1.6006         0.288221   
      4. B(C   4,C   3)                  1.5599         0.334759   
      5. B(C   5,C   4)                  1.5647         0.328824   
      6. B(C   6,C   5)                  1.5667         0.326486   
      7. B(C   7,C   6)                  1.5688         0.323927   
      8. B(C   8,C   7)                  1.5657         0.327637   
      9. B(C   9,C   8)                  1.5632         0.330714   
     10. B(F  10,C   3)                  1.3915         0.517117   
     11. B(F  11,C   4)                  1.3570         0.586881   
     12. B(F  12,C   4)                  1.3614         0.577499   
     13. B(F  13,C   5)                  1.3545         0.592326   
     14. B(F  14,C   5)                  1.3556         0.590092   
     15. B(F  15,C   6)                  1.3547         0.591865   
     16. B(F  16,C   6)                  1.3540         0.593567   
     17. B(F  17,C   7)                  1.3538         0.593973   
     18. B(F  18,C   7)                  1.3544         0.592672   
     19. B(F  19,C   8)                  1.3550         0.591238   
     20. B(F  20,C   8)                  1.3514         0.599114   
     21. B(F  21,C   9)                  1.3406         0.623533   
     22. B(F  22,C   9)                  1.3385         0.628179   
     23. B(F  23,C   9)                  1.3373         0.630929   
     24. A(O   2,C   0,C   3)          112.3347         0.371210   
     25. A(O   1,C   0,O   2)          136.1318         0.413163   
     26. A(O   1,C   0,C   3)          111.5249         0.369222   
     27. A(C   4,C   3,F  10)          107.4072         0.373095   
     28. A(C   0,C   3,C   4)          113.1687         0.341363   
     29. A(C   0,C   3,F  10)          110.2099         0.363632   
     30. A(C   5,C   4,F  11)          108.0911         0.380169   
     31. A(C   3,C   4,C   5)          113.5839         0.349005   
     32. A(F  11,C   4,F  12)          108.2194         0.415201   
     33. A(C   5,C   4,F  12)          107.9208         0.379109   
     34. A(C   3,C   4,F  11)          110.2926         0.381351   
     35. A(C   3,C   4,F  12)          108.5818         0.380286   
     36. A(C   4,C   5,C   6)          113.9128         0.347536   
     37. A(C   6,C   5,F  14)          107.7906         0.380059   
     38. A(C   4,C   5,F  13)          109.2282         0.380779   
     39. A(C   6,C   5,F  13)          108.2026         0.380308   
     40. A(F  13,C   5,F  14)          109.0206         0.417483   
     41. A(C   4,C   5,F  14)          108.5900         0.380529   
     42. A(C   5,C   6,C   7)          113.2023         0.346660   
     43. A(F  15,C   6,F  16)          108.8752         0.417862   
     44. A(C   7,C   6,F  16)          108.2186         0.379927   
     45. A(C   5,C   6,F  16)          109.1523         0.380446   
     46. A(C   7,C   6,F  15)          108.4284         0.379738   
     47. A(C   5,C   6,F  15)          108.8835         0.380256   
     48. A(C   8,C   7,F  18)          108.6915         0.380579   
     49. A(C   6,C   7,F  18)          108.6955         0.379828   
     50. A(C   8,C   7,F  17)          108.1296         0.380723   
     51. A(C   6,C   7,F  17)          109.2524         0.379972   
     52. A(C   6,C   7,C   8)          113.2298         0.346865   
     53. A(F  17,C   7,F  18)          108.7561         0.418014   
     54. A(F  19,C   8,F  20)          108.8987         0.418476   
     55. A(C   7,C   8,C   9)          114.1471         0.348078   
     56. A(C   9,C   8,F  20)          107.7127         0.381912   
     57. A(C   7,C   8,F  20)          109.0521         0.381293   
     58. A(C   9,C   8,F  19)          107.4499         0.381036   
     59. A(C   7,C   8,F  19)          109.4572         0.380419   
     60. A(F  22,C   9,F  23)          108.6464         0.426961   
     61. A(F  21,C   9,F  23)          109.0552         0.426394   
     62. A(C   8,C   9,F  23)          110.9604         0.385362   
     63. A(F  21,C   9,F  22)          108.6877         0.426061   
     64. A(C   8,C   9,F  22)          108.6349         0.385069   
     65. A(C   8,C   9,F  21)          110.7995         0.384572   
     66. D(F  10,C   3,C   0,O   2)    -70.4768         0.006172   
     67. D(C   4,C   3,C   0,O   1)   -131.0839         0.006172   
     68. D(C   4,C   3,C   0,O   2)     49.8076         0.006172   
     69. D(F  10,C   3,C   0,O   1)    108.6317         0.006172   
     70. D(C   5,C   4,C   3,F  10)    -89.4885         0.008543   
     71. D(C   5,C   4,C   3,C   0)    148.6429         0.008543   
     72. D(F  11,C   4,C   3,C   0)    -89.8453         0.008543   
     73. D(F  12,C   4,C   3,C   0)     28.5784         0.008543   
     74. D(F  11,C   4,C   3,F  10)     32.0233         0.008543   
     75. D(F  12,C   4,C   3,F  10)    150.4470         0.008543   
     76. D(F  13,C   5,C   4,C   3)    -74.9661         0.008811   
     77. D(C   6,C   5,C   4,F  12)    -75.6292         0.008811   
     78. D(C   6,C   5,C   4,C   3)    163.9326         0.008811   
     79. D(F  13,C   5,C   4,F  11)    162.3014         0.008811   
     80. D(F  14,C   5,C   4,F  11)    -78.9166         0.008811   
     81. D(F  14,C   5,C   4,C   3)     43.8158         0.008811   
     82. D(F  13,C   5,C   4,F  12)     45.4721         0.008811   
     83. D(F  14,C   5,C   4,F  12)    164.2540         0.008811   
     84. D(C   6,C   5,C   4,F  11)     41.2001         0.008811   
     85. D(F  16,C   6,C   5,F  14)    162.9527         0.008700   
     86. D(F  15,C   6,C   5,F  14)     44.2190         0.008700   
     87. D(F  16,C   6,C   5,F  13)    -79.2837         0.008700   
     88. D(F  15,C   6,C   5,F  13)    161.9826         0.008700   
     89. D(C   7,C   6,C   5,F  13)     41.3107         0.008700   
     90. D(F  16,C   6,C   5,C   4)     42.3872         0.008700   
     91. D(C   7,C   6,C   5,C   4)    162.9815         0.008700   
     92. D(C   7,C   6,C   5,F  14)    -76.4529         0.008700   
     93. D(F  15,C   6,C   5,C   4)    -76.3465         0.008700   
     94. D(C   8,C   7,C   6,F  16)    -76.5134         0.008578   
     95. D(C   8,C   7,C   6,F  15)     41.4341         0.008578   
     96. D(C   8,C   7,C   6,C   5)    162.3638         0.008578   
     97. D(F  18,C   7,C   6,F  16)     44.3783         0.008578   
     98. D(F  18,C   7,C   6,F  15)    162.3257         0.008578   
     99. D(F  18,C   7,C   6,C   5)    -76.7446         0.008578   
    100. D(F  17,C   7,C   6,F  16)    162.9167         0.008578   
    101. D(F  17,C   7,C   6,F  15)    -79.1358         0.008578   
    102. D(F  17,C   7,C   6,C   5)     41.7939         0.008578   
    103. D(F  20,C   8,C   7,F  18)    162.0243         0.008755   
    104. D(F  20,C   8,C   7,F  17)     44.1231         0.008755   
    105. D(F  20,C   8,C   7,C   6)    -77.0818         0.008755   
    106. D(F  19,C   8,C   7,F  18)    -78.9355         0.008755   
    107. D(F  19,C   8,C   7,F  17)    163.1633         0.008755   
    108. D(F  19,C   8,C   7,C   6)     41.9584         0.008755   
    109. D(C   9,C   8,C   7,F  18)     41.5227         0.008755   
    110. D(C   9,C   8,C   7,F  17)    -76.3785         0.008755   
    111. D(C   9,C   8,C   7,C   6)    162.4166         0.008755   
    112. D(F  23,C   9,C   8,F  19)     50.3013         0.008903   
    113. D(F  23,C   9,C   8,C   7)    -71.2711         0.008903   
    114. D(F  22,C   9,C   8,F  20)     48.1091         0.008903   
    115. D(F  22,C   9,C   8,F  19)    -69.0724         0.008903   
    116. D(F  22,C   9,C   8,C   7)    169.3552         0.008903   
    117. D(F  21,C   9,C   8,F  20)    -71.2185         0.008903   
    118. D(F  21,C   9,C   8,F  19)    171.5999         0.008903   
    119. D(F  23,C   9,C   8,F  20)    167.4828         0.008903   
    120. D(F  21,C   9,C   8,C   7)     50.0276         0.008903   
    -----------------------------------------------------------------

Number of atoms                         .... 24
Number of degrees of freedom            .... 120

         *************************************************************
         *                GEOMETRY OPTIMIZATION CYCLE   1            *
         *************************************************************
---------------------------------
CARTESIAN COORDINATES (ANGSTROEM)
---------------------------------
  C      4.790427   -0.033866   -0.529943
  O      5.449345   -1.206924   -0.894595
  O      4.978223    1.323071   -0.737377
  C      3.506688   -0.338742    0.376154
  C      2.222300    0.400525   -0.110682
  C      0.900507   -0.386390    0.175703
  C     -0.395261    0.487294    0.065549
  C     -1.705694   -0.364774   -0.068374
  C     -3.005136    0.445345    0.258164
  C     -4.319880   -0.214526   -0.270541
  F      3.741062    0.055286    1.689949
  F      2.125697    1.616868    0.483237
  F      2.314152    0.589704   -1.455769
  F      0.794029   -1.413561   -0.700839
  F      0.958351   -0.884509    1.435093
  F     -0.498373    1.260266    1.173340
  F     -0.299075    1.289513   -1.020911
  F     -1.641790   -1.418189    0.779524
  F     -1.792381   -0.831392   -1.336864
  F     -2.918792    1.679227   -0.295171
  F     -3.119771    0.573780    1.598580
  F     -4.383116   -1.504378    0.089128
  F     -5.365670    0.430529    0.260394
  F     -4.396020   -0.128551   -1.602942

----------------------------
CARTESIAN COORDINATES (A.U.)
----------------------------
  NO LB      ZA    FRAG     MASS         X           Y           Z
   0 C     6.0000    0    12.011    9.052595   -0.063997   -1.001448
   1 O     8.0000    0    15.999   10.297770   -2.280756   -1.690539
   2 O     8.0000    0    15.999    9.407478    2.500242   -1.393441
   3 C     6.0000    0    12.011    6.626679   -0.640129    0.710828
   4 C     6.0000    0    12.011    4.199538    0.756882   -0.209158
   5 C     6.0000    0    12.011    1.701711   -0.730171    0.332031
   6 C     6.0000    0    12.011   -0.746935    0.920852    0.123870
   7 C     6.0000    0    12.011   -3.223294   -0.689323   -0.129207
   8 C     6.0000    0    12.011   -5.678884    0.841580    0.487859
   9 C     6.0000    0    12.011   -8.163391   -0.405395   -0.511248
  10 F     9.0000    0    18.998    7.069582    0.104475    3.193540
  11 F     9.0000    0    18.998    4.016985    3.055437    0.913185
  12 F     9.0000    0    18.998    4.373114    1.114379   -2.751005
  13 F     9.0000    0    18.998    1.500497   -2.671244   -1.324394
  14 F     9.0000    0    18.998    1.811020   -1.671480    2.711934
  15 F     9.0000    0    18.998   -0.941789    2.381557    2.217292
  16 F     9.0000    0    18.998   -0.565170    2.436826   -1.929242
  17 F     9.0000    0    18.998   -3.102534   -2.679989    1.473086
  18 F     9.0000    0    18.998   -3.387110   -1.571102   -2.526306
  19 F     9.0000    0    18.998   -5.515718    3.173280   -0.557793
  20 F     9.0000    0    18.998   -5.895513    1.084287    3.020878
  21 F     9.0000    0    18.998   -8.282888   -2.842862    0.168427
  22 F     9.0000    0    18.998  -10.139646    0.813581    0.492074
  23 F     9.0000    0    18.998   -8.307275   -0.242925   -3.029121

--------------------------------
INTERNAL COORDINATES (ANGSTROEM)
--------------------------------
 C      0   0   0     0.000000000000     0.00000000     0.00000000
 O      1   0   0     1.393990356793     0.00000000     0.00000000
 O      1   2   0     1.385486802956   136.13177198     0.00000000
 C      1   2   3     1.600608594862   111.52489317   181.18992567
 C      4   1   2     1.559863783763   113.16872737   228.91614990
 C      5   4   1     1.564732561934   113.58394786   148.64287440
 C      6   5   4     1.566675459667   113.91280616   163.93256239
 C      7   6   5     1.568817348692   113.20226571   162.98152714
 C      8   7   6     1.565717094808   113.22984595   162.36375422
 C      9   8   7     1.563173062643   114.14707705   162.41661495
 F      4   1   2     1.391490625050   110.20991618   108.63170802
 F      5   4   1     1.357041377479   110.29260564   270.15468021
 F      5   4   1     1.361428031433   108.58179722    28.57841973
 F      6   5   4     1.354527570075   109.22822656   285.03385927
 F      6   5   4     1.355556277776   108.59004089    43.81583148
 F      7   6   5     1.354739297058   108.88346185   283.65347401
 F      7   6   5     1.353957667090   109.15230848    42.38718856
 F      8   7   6     1.353771473879   109.25240264    41.79387651
 F      8   7   6     1.354368423305   108.69554158   283.25540020
 F      9   8   7     1.355028009646   109.45719767    41.95842364
 F      9   8   7     1.351425618925   109.05210362   282.91820052
 F     10   9   8     1.340551089588   110.79953142    50.02756898
 F     10   9   8     1.338530275591   108.63493714   169.35523750
 F     10   9   8     1.337341214598   110.96044107   288.72891896

---------------------------
INTERNAL COORDINATES (A.U.)
---------------------------
 C      0   0   0     0.000000000000     0.00000000     0.00000000
 O      1   0   0     2.634260007667     0.00000000     0.00000000
 O      1   2   0     2.618190619750   136.13177198     0.00000000
 C      1   2   3     3.024711891890   111.52489317   181.18992567
 C      4   1   2     2.947715357535   113.16872737   228.91614990
 C      5   4   1     2.956916014884   113.58394786   148.64287440
 C      6   5   4     2.960587559506   113.91280616   163.93256239
 C      7   6   5     2.964635143173   113.20226571   162.98152714
 C      8   7   6     2.958776512386   113.22984595   162.36375422
 C      9   8   7     2.953968988318   114.14707705   162.41661495
 F      4   1   2     2.629536199263   110.20991618   108.63170802
 F      5   4   1     2.564436555835   110.29260564   270.15468021
 F      5   4   1     2.572726130452   108.58179722    28.57841973
 F      6   5   4     2.559686148288   109.22822656   285.03385927
 F      6   5   4     2.561630124115   108.59004089    43.81583148
 F      7   6   5     2.560086254300   108.88346185   283.65347401
 F      7   6   5     2.558609187723   109.15230848    42.38718856
 F      8   7   6     2.558257333546   109.25240264    41.79387651
 F      8   7   6     2.559385404477   108.69554158   283.25540020
 F      9   8   7     2.560631842023   109.45719767    41.95842364
 F      9   8   7     2.553824310132   109.05210362   282.91820052
 F     10   9   8     2.533274427850   110.79953142    50.02756898
 F     10   9   8     2.529455642830   108.63493714   169.35523750
 F     10   9   8     2.527208643196   110.96044107   288.72891896

---------------------
BASIS SET INFORMATION
---------------------
There are 3 groups of distinct atoms

 Group   1 Type C   : 11s6p2d1f contracted to 5s3p2d1f pattern {62111/411/11/1}
 Group   2 Type O   : 11s6p2d1f contracted to 5s3p2d1f pattern {62111/411/11/1}
 Group   3 Type F   : 11s6p2d1f contracted to 5s3p2d1f pattern {62111/411/11/1}

Atom   0C    basis set group =>   1
Atom   1O    basis set group =>   2
Atom   2O    basis set group =>   2
Atom   3C    basis set group =>   1
Atom   4C    basis set group =>   1
Atom   5C    basis set group =>   1
Atom   6C    basis set group =>   1
Atom   7C    basis set group =>   1
Atom   8C    basis set group =>   1
Atom   9C    basis set group =>   1
Atom  10F    basis set group =>   3
Atom  11F    basis set group =>   3
Atom  12F    basis set group =>   3
Atom  13F    basis set group =>   3
Atom  14F    basis set group =>   3
Atom  15F    basis set group =>   3
Atom  16F    basis set group =>   3
Atom  17F    basis set group =>   3
Atom  18F    basis set group =>   3
Atom  19F    basis set group =>   3
Atom  20F    basis set group =>   3
Atom  21F    basis set group =>   3
Atom  22F    basis set group =>   3
Atom  23F    basis set group =>   3
---------------------------------
AUXILIARY/J BASIS SET INFORMATION
---------------------------------
There are 3 groups of distinct atoms

 Group   1 Type C   : 12s5p4d2f1g contracted to 6s4p3d1f1g pattern {711111/2111/211/2/1}
 Group   2 Type O   : 12s5p4d2f1g contracted to 6s4p3d1f1g pattern {711111/2111/211/2/1}
 Group   3 Type F   : 12s5p4d2f1g contracted to 6s4p3d1f1g pattern {711111/2111/211/2/1}

Atom   0C    basis set group =>   1
Atom   1O    basis set group =>   2
Atom   2O    basis set group =>   2
Atom   3C    basis set group =>   1
Atom   4C    basis set group =>   1
Atom   5C    basis set group =>   1
Atom   6C    basis set group =>   1
Atom   7C    basis set group =>   1
Atom   8C    basis set group =>   1
Atom   9C    basis set group =>   1
Atom  10F    basis set group =>   3
Atom  11F    basis set group =>   3
Atom  12F    basis set group =>   3
Atom  13F    basis set group =>   3
Atom  14F    basis set group =>   3
Atom  15F    basis set group =>   3
Atom  16F    basis set group =>   3
Atom  17F    basis set group =>   3
Atom  18F    basis set group =>   3
Atom  19F    basis set group =>   3
Atom  20F    basis set group =>   3
Atom  21F    basis set group =>   3
Atom  22F    basis set group =>   3
Atom  23F    basis set group =>   3


           ************************************************************
           *        Program running with 20 parallel MPI-processes    *
           *              working on a common directory               *
           ************************************************************
------------------------------------------------------------------------------
                           ORCA GTO INTEGRAL CALCULATION
                           -- RI-GTO INTEGRALS CHOSEN --
------------------------------------------------------------------------------
------------------------------------------------------------------------------
                   ___                                                        
                  /   \      - P O W E R E D   B Y -                         
                 /     \                                                     
                 |  |  |   _    _      __       _____    __    __             
                 |  |  |  | |  | |    /  \     |  _  \  |  |  /  |          
                  \  \/   | |  | |   /    \    | | | |  |  | /  /          
                 / \  \   | |__| |  /  /\  \   | |_| |  |  |/  /          
                |  |  |   |  __  | /  /__\  \  |    /   |      \           
                |  |  |   | |  | | |   __   |  |    \   |  |\   \          
                \     /   | |  | | |  |  |  |  | |\  \  |  | \   \       
                 \___/    |_|  |_| |__|  |__|  |_| \__\ |__|  \__/        
                                                                              
                      - O R C A' S   B I G   F R I E N D -                    
                                      &                                       
                       - I N T E G R A L  F E E D E R -                       
                                                                              
 v1 FN, 2020, v2 2021                                                         
------------------------------------------------------------------------------


Reading SHARK input file rf_mecn_opt_B3L_C2_D_B.SHARKINP.tmp ... ok
----------------------
SHARK INTEGRAL PACKAGE
----------------------

Number of atoms                             ...     24
Number of basis functions                   ...    744
Number of shells                            ...    264
Maximum angular momentum                    ...      3
Integral batch strategy                     ... SHARK/LIBINT Hybrid
RI-J (if used) integral strategy            ... SPLIT-RIJ (Revised 2003 algorithm where possible)
Printlevel                                  ...      1
Contraction scheme used                     ... SEGMENTED contraction
Coulomb Range Separation                    ... NOT USED
Exchange Range Separation                   ... NOT USED
Finite Nucleus Model                        ... NOT USED
Auxiliary Coulomb fitting basis             ... AVAILABLE
   # of basis functions in Aux-J            ...   1176
   # of shells in Aux-J                     ...    360
   Maximum angular momentum in Aux-J        ...      4
Auxiliary J/K fitting basis                 ... NOT available
Auxiliary Correlation fitting basis         ... NOT available
Auxiliary 'external' fitting basis          ... NOT available
Integral threshold                          ...     2.500000e-11
Primitive cut-off                           ...     2.500000e-12
Primitive pair pre-selection threshold      ...     2.500000e-12

Calculating pre-screening integrals         ... done (  0.0 sec) Dimension = 264
Organizing shell pair data                  ... done (  0.3 sec)
Shell pair information
Total number of shell pairs                 ...     34980
Shell pairs after pre-screening             ...     21730
Total number of primitive shell pairs       ...    115968
Primitive shell pairs kept                  ...     46208
          la=0 lb=0:   4056 shell pairs
          la=1 lb=0:   5906 shell pairs
          la=1 lb=1:   2069 shell pairs
          la=2 lb=0:   3229 shell pairs
          la=2 lb=1:   2393 shell pairs
          la=2 lb=2:    680 shell pairs
          la=3 lb=0:   1466 shell pairs
          la=3 lb=1:   1159 shell pairs
          la=3 lb=2:    623 shell pairs
          la=3 lb=3:    149 shell pairs

Calculating one electron integrals          ... done (  0.0 sec)
Calculating RI/J V-Matrix + Cholesky decomp.... done (  0.1 sec)
Calculating Nuclear repulsion               ... done (  0.0 sec) ENN=   2620.123499878366 Eh

SHARK setup successfully completed in   0.8 seconds

Maximum memory used throughout the entire GTOINT-calculation: 38.6 MB


           ************************************************************
           *        Program running with 20 parallel MPI-processes    *
           *              working on a common directory               *
           ************************************************************
-------------------------------------------------------------------------------
                                 ORCA SCF
-------------------------------------------------------------------------------

------------
SCF SETTINGS
------------
Hamiltonian:
 Density Functional     Method          .... DFT(GTOs)
 Exchange Functional    Exchange        .... B88
   X-Alpha parameter    XAlpha          ....  0.666667
   Becke's b parameter  XBeta           ....  0.004200
 Correlation Functional Correlation     .... LYP
 LDA part of GGA corr.  LDAOpt          .... VWN-5
 Gradients option       PostSCFGGA      .... off
 Hybrid DFT is turned on
   Fraction HF Exchange ScalHFX         ....  0.200000
   Scaling of DF-GGA-X  ScalDFX         ....  0.720000
   Scaling of DF-GGA-C  ScalDFC         ....  0.810000
   Scaling of DF-LDA-C  ScalLDAC        ....  1.000000
   Perturbative correction              ....  0.000000
   Density functional embedding theory  .... OFF
   NL short-range parameter             ....  4.800000
 RI-approximation to the Coulomb term is turned on
   Number of AuxJ basis functions       .... 1176
   RIJ-COSX (HFX calculated with COS-X)).... on


General Settings:
 Integral files         IntName         .... rf_mecn_opt_B3L_C2_D_B
 Hartree-Fock type      HFTyp           .... UHF
 Total Charge           Charge          ....   -1
 Multiplicity           Mult            ....    2
 Number of Electrons    NEL             ....  191
 Basis Dimension        Dim             ....  744
 Nuclear Repulsion      ENuc            ....   2620.1234998784 Eh

Convergence Acceleration:
 DIIS                   CNVDIIS         .... on
   Start iteration      DIISMaxIt       ....     0
   Startup error        DIISStart       ....  0.200000
   # of expansion vecs  DIISMaxEq       ....     5
   Bias factor          DIISBfac        ....   1.050
   Max. coefficient     DIISMaxC        ....  10.000
 Trust-Rad. Augm. Hess. CNVTRAH         .... auto
   Auto Start mean grad. ratio tolernc. ....  1.125000
   Auto Start start iteration           ....    20
   Auto Start num. interpolation iter.  ....    10
   Max. Number of Micro iterations      ....    16
   Max. Number of Macro iterations      .... Maxiter - #DIIS iter
   Number of Davidson start vectors     ....     2
   Converg. threshold I  (grad. norm)   ....   1.000e-05
   Converg. threshold II (energy diff.) ....   1.000e-08
   Grad. Scal. Fac. for Micro threshold ....   0.100
   Minimum threshold for Micro iter.    ....   0.010
   NR start threshold (gradient norm)   ....   0.001
   Initial trust radius                 ....   0.400
   Minimum AH scaling param. (alpha)    ....   1.000
   Maximum AH scaling param. (alpha)    .... 1000.000
   Orbital update algorithm             .... Taylor
   White noise on init. David. guess    .... on
   Maximum white noise                  ....   0.010
   Quad. conv. algorithm                .... NR
 SOSCF                  CNVSOSCF        .... off
 Level Shifting         CNVShift        .... on
   Level shift para.    LevelShift      ....    0.2500
   Turn off err/grad.   ShiftErr        ....    0.0000
 Zerner damping         CNVZerner       .... off
 Static damping         CNVDamp         .... on
   Fraction old density DampFac         ....    0.8500
   Max. Damping (<1)    DampMax         ....    0.9800
   Min. Damping (>=0)   DampMin         ....    0.0000
   Turn off err/grad.   DampErr         ....    0.0300
 Fernandez-Rico         CNVRico         .... off

SCF Procedure:
 Maximum # iterations   MaxIter         ....  1500
 SCF integral mode      SCFMode         .... Direct
   Integral package                     .... SHARK and LIBINT hybrid scheme
 Reset frequency        DirectResetFreq ....    20
 Integral Threshold     Thresh          ....  2.500e-11 Eh
 Primitive CutOff       TCut            ....  2.500e-12 Eh

Convergence Tolerance:
 Convergence Check Mode ConvCheckMode   .... Total+1el-Energy
 Convergence forced     ConvForced      .... 0
 Energy Change          TolE            ....  1.000e-08 Eh
 1-El. energy change                    ....  1.000e-05 Eh
 DIIS Error             TolErr          ....  5.000e-07


Diagonalization of the overlap matrix:
Smallest eigenvalue                        ... 6.364e-05
Time for diagonalization                   ...    0.108 sec
Threshold for overlap eigenvalues          ... 1.000e-08
Number of eigenvalues below threshold      ... 0
Time for construction of square roots      ...    0.047 sec
Total time needed                          ...    0.158 sec

Time for model grid setup =    0.159 sec

------------------------------
INITIAL GUESS: MODEL POTENTIAL
------------------------------
Loading Hartree-Fock densities                     ... done
Calculating cut-offs                               ... done
Initializing the effective Hamiltonian             ... done
Setting up the integral package (SHARK)            ... done
Starting the Coulomb interaction                   ... done (   0.2 sec)
Reading the grid                                   ... done
Mapping shells                                     ... done
Starting the XC term evaluation                    ... done (   0.1 sec)
  promolecular density results
     # of electrons  =    190.000242820
     EX              =   -198.099088293
     EC              =     -7.131988649
     EX+EC           =   -205.231076943
Transforming the Hamiltonian                       ... done (   0.0 sec)
Diagonalizing the Hamiltonian                      ... done (   0.1 sec)
Back transforming the eigenvectors                 ... done (   0.0 sec)
Now organizing SCF variables                       ... done
                      ------------------
                      INITIAL GUESS DONE (   0.8 sec)
                      ------------------
-------------------
DFT GRID GENERATION
-------------------

General Integration Accuracy     IntAcc      ... 4.388
Radial Grid Type                 RadialGrid  ... OptM3 with GC (2021)
Angular Grid (max. ang.)         AngularGrid ... 4 (Lebedev-302)
Angular grid pruning method      GridPruning ... 4 (adaptive)
Weight generation scheme         WeightScheme... Becke
Basis function cutoff            BFCut       ... 1.0000e-11
Integration weight cutoff        WCut        ... 1.0000e-14
Angular grids for H and He will be reduced by one unit
Partially contracted basis set               ... off
Rotationally invariant grid construction     ... off

Total number of grid points                  ...   145478
Total number of batches                      ...     2285
Average number of points per batch           ...       63
Average number of grid points per atom       ...     6062
Time for grid setup =    0.755 sec

--------------------
COSX GRID GENERATION
--------------------

GRIDX 1
-------
General Integration Accuracy     IntAcc      ... 3.816
Radial Grid Type                 RadialGrid  ... OptM3 with GC (2021)
Angular Grid (max. ang.)         AngularGrid ... 1 (Lebedev-50)
Angular grid pruning method      GridPruning ... 4 (adaptive)
Weight generation scheme         WeightScheme... Becke
Basis function cutoff            BFCut       ... 1.0000e-11
Integration weight cutoff        WCut        ... 1.0000e-14
Angular grids for H and He will be reduced by one unit
Partially contracted basis set               ... on
Rotationally invariant grid construction     ... off

Total number of grid points                  ...    18283
Total number of batches                      ...      300
Average number of points per batch           ...       60
Average number of grid points per atom       ...      762
UseSFitting                                  ... on

GRIDX 2
-------
General Integration Accuracy     IntAcc      ... 4.020
Radial Grid Type                 RadialGrid  ... OptM3 with GC (2021)
Angular Grid (max. ang.)         AngularGrid ... 2 (Lebedev-110)
Angular grid pruning method      GridPruning ... 4 (adaptive)
Weight generation scheme         WeightScheme... Becke
Basis function cutoff            BFCut       ... 1.0000e-11
Integration weight cutoff        WCut        ... 1.0000e-14
Angular grids for H and He will be reduced by one unit
Partially contracted basis set               ... on
Rotationally invariant grid construction     ... off

Total number of grid points                  ...    43348
Total number of batches                      ...      692
Average number of points per batch           ...       62
Average number of grid points per atom       ...     1806
UseSFitting                                  ... on

GRIDX 3
-------
General Integration Accuracy     IntAcc      ... 4.338
Radial Grid Type                 RadialGrid  ... OptM3 with GC (2021)
Angular Grid (max. ang.)         AngularGrid ... 3 (Lebedev-194)
Angular grid pruning method      GridPruning ... 4 (adaptive)
Weight generation scheme         WeightScheme... Becke
Basis function cutoff            BFCut       ... 1.0000e-11
Integration weight cutoff        WCut        ... 1.0000e-14
Angular grids for H and He will be reduced by one unit
Partially contracted basis set               ... on
Rotationally invariant grid construction     ... off

Total number of grid points                  ...    96052
Total number of batches                      ...     1511
Average number of points per batch           ...       63
Average number of grid points per atom       ...     4002
UseSFitting                                  ... on

Time for X-Grid setup             =    1.241 sec


--------------------
CPCM SOLVATION MODEL
--------------------
CPCM parameters:
  Epsilon                                         ...      35.6880
  Refrac                                          ...       1.3442
  Rsolv                                           ...       1.3000
  Surface type                                    ... GAUSSIAN VDW
  Epsilon function type                           ...         CPCM
Solvent:                                     ... ACETONITRILE
SMD-CDS solvent descriptors:
  Soln                                       ...    1.3442
  Soln25                                     ...    1.3416
  Sola                                       ...    0.0700
  Solb                                       ...    0.3200
  Solg                                       ...   41.2500
  Solc                                       ...    0.0000
  Solh                                       ...    0.0000
Radii:
 Radius for C  used is    3.4960 Bohr (=   1.8500 Ang.)
 Radius for O  used is    4.0969 Bohr (=   2.1680 Ang.)
 Radius for F  used is    3.2692 Bohr (=   1.7300 Ang.)
Calculating surface                               ...        done! (  0.0s)
GEPOL surface points                              ...         1274
GEPOL Volume                                      ...    2153.5135
GEPOL Surface-area                                ...    1122.3418
Calculating surface distance matrix               ...        done! (  0.0s)
Performing Cholesky decomposition & store         ...        done! (  0.1s)
Overall time for CPCM initialization              ...                 0.1s
--------------
SCF ITERATIONS
--------------
ITER       Energy         Delta-E        Max-DP      RMS-DP      [F,P]     Damp
               ***  Starting incremental Fock matrix formation  ***
  0  -1852.6194768559   0.000000000000 0.04238764  0.00020591  0.1700683 0.8500
  1  -1852.8014230875  -0.181946231639 0.06658008  0.00023293  0.1128234 0.8500
                               ***Turning on DIIS***
  2  -1852.8957090577  -0.094285970216 0.05224022  0.00017001  0.0635060 0.8500
  3  -1852.9468378457  -0.051128787970 0.02180589  0.00007701  0.0322808 0.8500
  4  -1852.9852799927  -0.038442146988 0.03937184  0.00025011  0.0232008 0.0000
  5  -1853.1793714520  -0.194091459332 0.03998505  0.00012099  0.0079579 0.0000
  6  -1853.1813865694  -0.002015117350 0.01692927  0.00004850  0.0049928 0.0000
  7  -1853.1819751272  -0.000588557788 0.00447668  0.00001498  0.0022334 0.0000
  8  -1853.1821299720  -0.000154844872 0.00286376  0.00001050  0.0017675 0.0000
  9  -1853.1822059300  -0.000075957960 0.00159312  0.00000724  0.0013309 0.0000
 10  -1853.1822478985  -0.000041968470 0.00072737  0.00000538  0.0010887 0.0000
 11  -1853.1822697568  -0.000021858373 0.00045309  0.00000352  0.0006205 0.0000
               *** Restarting incremental Fock matrix formation ***
                                   *** Resetting DIIS ***
 12  -1853.1822948826  -0.000025125746 0.00023081  0.00000239  0.0004643 0.0000
 13  -1853.1822992259  -0.000004343313 0.00019124  0.00000140  0.0003682 0.0000
 14  -1853.1823021497  -0.000002923761 0.00021170  0.00000169  0.0002627 0.0000
 15  -1853.1823038199  -0.000001670267 0.00015878  0.00000106  0.0002324 0.0000
 16  -1853.1823048641  -0.000001044154 0.00011573  0.00000085  0.0001413 0.0000
 17  -1853.1823053057  -0.000000441569 0.00007650  0.00000053  0.0001070 0.0000
 18  -1853.1823055225  -0.000000216885 0.00005865  0.00000035  0.0000664 0.0000
 19  -1853.1823056019  -0.000000079338 0.00004101  0.00000024  0.0000493 0.0000
 20  -1853.1823056653  -0.000000063442 0.00003715  0.00000024  0.0000291 0.0000
 21  -1853.1823056608   0.000000004489 0.00001786  0.00000013  0.0000204 0.0000
 22  -1853.1823056343   0.000000026535 0.00003242  0.00000017  0.0000116 0.0000
 23  -1853.1823056775  -0.000000043227 0.00000587  0.00000005  0.0000075 0.0000
 24  -1853.1823056654   0.000000012166 0.00000767  0.00000005  0.0000041 0.0000
 25  -1853.1823056715  -0.000000006165 0.00000552  0.00000003  0.0000022 0.0000
                 **** Energy Check signals convergence ****

               *****************************************************
               *                     SUCCESS                       *
               *           SCF CONVERGED AFTER  26 CYCLES          *
               *****************************************************

Old exchange energy                            =    -39.730854246 Eh
New exchange energy                            =    -39.730862965 Eh
Exchange energy change after final integration =     -0.000008718 Eh
Total energy after final integration           =  -1853.182314383 Eh
Final COS-X integration done in                =    10.682 sec

SMD CDS free energy correction energy :                 3.56261     Kcal/mol
Total Energy after SMD CDS correction =             -1853.176637010 Eh

----------------
TOTAL SCF ENERGY
----------------

Total Energy       :        -1853.17663701 Eh          -50427.49998 eV

Components:
Nuclear Repulsion  :         2620.12349988 Eh           71297.18511 eV
Electronic Energy  :        -4473.30013689 Eh         -121724.68509 eV
One Electron Energy:        -7813.72344591 Eh         -212622.22447 eV
Two Electron Energy:         3340.42330903 Eh           90897.53938 eV
Max COSX asymmetry :            0.00000049 Eh               0.00001 eV
CPCM Dielectric    :           -0.08190202 Eh              -2.22867 eV
SMD CDS (Gcds)     :            0.00567737 Eh               0.15449 eV

Virial components:
Potential Energy   :        -3699.07648644 Eh         -100656.98850 eV
Kinetic Energy     :         1845.89984943 Eh           50229.48852 eV
Virial Ratio       :            2.00394214


DFT components:
N(Alpha)           :       95.999982285963 electrons
N(Beta)            :       94.999974196575 electrons
N(Total)           :      190.999956482538 electrons
E(X)               :     -158.396941624536 Eh       
E(C)               :       -8.364670697723 Eh       
E(XC)              :     -166.761612322259 Eh       
DFET-embed. en.    :        0.000000000000 Eh       
CPCM Solvation Model Properties:
Surface-charge          :            0.98923260
Charge-correction       :           -0.00111659 Eh              -0.03038 eV
Free-energy (cav+disp)  :            0.00567737 Eh               0.15449 eV

---------------
SCF CONVERGENCE
---------------

  Last Energy change         ...    7.3785e-09  Tolerance :   1.0000e-08
  Last MAX-Density change    ...    0.0000e+00  Tolerance :   1.0000e-07
  Last RMS-Density change    ...    0.0000e+00  Tolerance :   5.0000e-09
  Last DIIS Error            ...    1.8853e-06  Tolerance :   5.0000e-07

             **** THE GBW FILE WAS UPDATED (rf_mecn_opt_B3L_C2_D_B.gbw) ****
             **** DENSITY rf_mecn_opt_B3L_C2_D_B.scfp WAS UPDATED ****
             **** ENERGY FILE WAS UPDATED (rf_mecn_opt_B3L_C2_D_B.en.tmp) ****
----------------------
UHF SPIN CONTAMINATION
----------------------

Warning: in a DFT calculation there is little theoretical justification to 
         calculate <S**2> as in Hartree-Fock theory. We will do it anyways
         but you should keep in mind that the values have only limited relevance

Expectation value of <S**2>     :     0.753786
Ideal value S*(S+1) for S=0.5   :     0.750000
Deviation                       :     0.003786

             **** THE GBW FILE WAS UPDATED (rf_mecn_opt_B3L_C2_D_B.gbw) ****
             **** DENSITY rf_mecn_opt_B3L_C2_D_B.scfp WAS UPDATED ****
----------------
ORBITAL ENERGIES
----------------
                 SPIN UP ORBITALS
  NO   OCC          E(Eh)            E(eV) 
   0   1.0000     -24.745188      -673.3508 
   1   1.0000     -24.744243      -673.3251 
   2   1.0000     -24.743610      -673.3079 
   3   1.0000     -24.743609      -673.3078 
   4   1.0000     -24.743261      -673.2984 
   5   1.0000     -24.743021      -673.2918 
   6   1.0000     -24.742643      -673.2815 
   7   1.0000     -24.739718      -673.2019 
   8   1.0000     -24.739400      -673.1933 
   9   1.0000     -24.735601      -673.0899 
  10   1.0000     -24.733461      -673.0317 
  11   1.0000     -24.719080      -672.6404 
  12   1.0000     -24.715815      -672.5515 
  13   1.0000     -24.702116      -672.1788 
  14   1.0000     -19.093414      -519.5582 
  15   1.0000     -19.083808      -519.2968 
  16   1.0000     -10.462877      -284.7094 
  17   1.0000     -10.409362      -283.2532 
  18   1.0000     -10.408994      -283.2431 
  19   1.0000     -10.404736      -283.1273 
  20   1.0000     -10.395021      -282.8629 
  21   1.0000     -10.379752      -282.4474 
  22   1.0000     -10.295123      -280.1445 
  23   1.0000     -10.287763      -279.9443 
  24   1.0000      -1.351058       -36.7642 
  25   1.0000      -1.326664       -36.1003 
  26   1.0000      -1.311093       -35.6767 
  27   1.0000      -1.304198       -35.4890 
  28   1.0000      -1.298976       -35.3469 
  29   1.0000      -1.283833       -34.9349 
  30   1.0000      -1.265471       -34.4352 
  31   1.0000      -1.259388       -34.2697 
  32   1.0000      -1.258506       -34.2457 
  33   1.0000      -1.251532       -34.0559 
  34   1.0000      -1.248308       -33.9682 
  35   1.0000      -1.243512       -33.8377 
  36   1.0000      -1.229164       -33.4473 
  37   1.0000      -1.221568       -33.2405 
  38   1.0000      -0.962400       -26.1882 
  39   1.0000      -0.903137       -24.5756 
  40   1.0000      -0.847613       -23.0647 
  41   1.0000      -0.824106       -22.4251 
  42   1.0000      -0.793822       -21.6010 
  43   1.0000      -0.755300       -20.5528 
  44   1.0000      -0.712686       -19.3932 
  45   1.0000      -0.686113       -18.6701 
  46   1.0000      -0.663505       -18.0549 
  47   1.0000      -0.649080       -17.6624 
  48   1.0000      -0.643553       -17.5120 
  49   1.0000      -0.637135       -17.3373 
  50   1.0000      -0.626427       -17.0459 
  51   1.0000      -0.622439       -16.9374 
  52   1.0000      -0.619025       -16.8445 
  53   1.0000      -0.608243       -16.5511 
  54   1.0000      -0.603038       -16.4095 
  55   1.0000      -0.596240       -16.2245 
  56   1.0000      -0.592708       -16.1284 
  57   1.0000      -0.581559       -15.8250 
  58   1.0000      -0.572788       -15.5863 
  59   1.0000      -0.559720       -15.2308 
  60   1.0000      -0.541447       -14.7335 
  61   1.0000      -0.515919       -14.0389 
  62   1.0000      -0.512139       -13.9360 
  63   1.0000      -0.506620       -13.7858 
  64   1.0000      -0.501805       -13.6548 
  65   1.0000      -0.499496       -13.5920 
  66   1.0000      -0.495319       -13.4783 
  67   1.0000      -0.489341       -13.3157 
  68   1.0000      -0.486497       -13.2382 
  69   1.0000      -0.481832       -13.1113 
  70   1.0000      -0.480873       -13.0852 
  71   1.0000      -0.476782       -12.9739 
  72   1.0000      -0.473862       -12.8944 
  73   1.0000      -0.463790       -12.6204 
  74   1.0000      -0.463209       -12.6046 
  75   1.0000      -0.453848       -12.3498 
  76   1.0000      -0.453734       -12.3467 
  77   1.0000      -0.452693       -12.3184 
  78   1.0000      -0.449195       -12.2232 
  79   1.0000      -0.447967       -12.1898 
  80   1.0000      -0.443480       -12.0677 
  81   1.0000      -0.442613       -12.0441 
  82   1.0000      -0.441064       -12.0020 
  83   1.0000      -0.440298       -11.9811 
  84   1.0000      -0.433120       -11.7858 
  85   1.0000      -0.427669       -11.6375 
  86   1.0000      -0.420429       -11.4405 
  87   1.0000      -0.402433       -10.9507 
  88   1.0000      -0.393212       -10.6998 
  89   1.0000      -0.377311       -10.2672 
  90   1.0000      -0.348000        -9.4696 
  91   1.0000      -0.344398        -9.3716 
  92   1.0000      -0.280341        -7.6285 
  93   1.0000      -0.251248        -6.8368 
  94   1.0000      -0.240401        -6.5416 
  95   1.0000      -0.231305        -6.2941 
  96   0.0000      -0.018786        -0.5112 
  97   0.0000      -0.004276        -0.1163 
  98   0.0000       0.006398         0.1741 
  99   0.0000       0.040555         1.1035 
 100   0.0000       0.058742         1.5984 
 101   0.0000       0.087660         2.3853 
 102   0.0000       0.097797         2.6612 
 103   0.0000       0.102128         2.7790 
 104   0.0000       0.106063         2.8861 
 105   0.0000       0.124203         3.3797 
 106   0.0000       0.129616         3.5270 
 107   0.0000       0.139793         3.8040 
 108   0.0000       0.150569         4.0972 
 109   0.0000       0.152725         4.1558 
 110   0.0000       0.170808         4.6479 
 111   0.0000       0.175122         4.7653 
 112   0.0000       0.187068         5.0904 
 113   0.0000       0.191558         5.2126 
 114   0.0000       0.198644         5.4054 
 115   0.0000       0.204763         5.5719 
 116   0.0000       0.208320         5.6687 
 117   0.0000       0.210942         5.7400 
 118   0.0000       0.213702         5.8151 
 119   0.0000       0.221045         6.0149 
 120   0.0000       0.226217         6.1557 
 121   0.0000       0.229037         6.2324 
 122   0.0000       0.233089         6.3427 
 123   0.0000       0.242814         6.6073 
 124   0.0000       0.244628         6.6567 
 125   0.0000       0.250299         6.8110 
 126   0.0000       0.252832         6.8799 
 127   0.0000       0.260040         7.0760 
 128   0.0000       0.266699         7.2572 
 129   0.0000       0.275307         7.4915 
 130   0.0000       0.279870         7.6157 
 131   0.0000       0.287795         7.8313 
 132   0.0000       0.292222         7.9518 
 133   0.0000       0.297588         8.0978 
 134   0.0000       0.302056         8.2194 
 135   0.0000       0.314022         8.5450 
 136   0.0000       0.317429         8.6377 
 137   0.0000       0.328361         8.9352 
 138   0.0000       0.329980         8.9792 
 139   0.0000       0.337407         9.1813 
 140   0.0000       0.343597         9.3498 
 141   0.0000       0.357915         9.7394 
 142   0.0000       0.376716        10.2510 
 143   0.0000       0.394730        10.7412 
 144   0.0000       0.395070        10.7504 
 145   0.0000       0.404800        11.0152 
 146   0.0000       0.419337        11.4107 
 147   0.0000       0.422407        11.4943 
 148   0.0000       0.429448        11.6859 
 149   0.0000       0.434048        11.8110 
 150   0.0000       0.437608        11.9079 
 151   0.0000       0.451015        12.2727 
 152   0.0000       0.455023        12.3818 
 153   0.0000       0.464444        12.6382 
 154   0.0000       0.464634        12.6433 
 155   0.0000       0.477594        12.9960 
 156   0.0000       0.483256        13.1501 
 157   0.0000       0.495433        13.4814 
 158   0.0000       0.499728        13.5983 
 159   0.0000       0.514146        13.9906 
 160   0.0000       0.517326        14.0771 
 161   0.0000       0.523839        14.2544 
 162   0.0000       0.529796        14.4165 
 163   0.0000       0.537947        14.6383 
 164   0.0000       0.540533        14.7087 
 165   0.0000       0.545469        14.8430 
 166   0.0000       0.562438        15.3047 
 167   0.0000       0.580270        15.7900 
 168   0.0000       0.609261        16.5788 
 169   0.0000       0.612880        16.6773 
 170   0.0000       0.620505        16.8848 
 171   0.0000       0.640014        17.4157 
 172   0.0000       0.651216        17.7205 
 173   0.0000       0.654590        17.8123 
 174   0.0000       0.659398        17.9431 
 175   0.0000       0.664739        18.0885 
 176   0.0000       0.668512        18.1911 
 177   0.0000       0.685806        18.6617 
 178   0.0000       0.693345        18.8669 
 179   0.0000       0.704720        19.1764 
 180   0.0000       0.708217        19.2716 
 181   0.0000       0.712985        19.4013 
 182   0.0000       0.719432        19.5767 
 183   0.0000       0.732182        19.9237 
 184   0.0000       0.734562        19.9884 
 185   0.0000       0.742182        20.1958 
 186   0.0000       0.748432        20.3659 
 187   0.0000       0.749476        20.3943 
 188   0.0000       0.759170        20.6581 
 189   0.0000       0.764620        20.8064 
 190   0.0000       0.772003        21.0073 
 191   0.0000       0.777568        21.1587 
 192   0.0000       0.791013        21.5246 
 193   0.0000       0.797298        21.6956 
 194   0.0000       0.800904        21.7937 
 195   0.0000       0.816763        22.2253 
 196   0.0000       0.829820        22.5805 
 197   0.0000       0.840239        22.8641 
 198   0.0000       0.840590        22.8736 
 199   0.0000       0.846033        23.0217 
 200   0.0000       0.851738        23.1770 
 201   0.0000       0.862197        23.4616 
 202   0.0000       0.866007        23.5653 
 203   0.0000       0.877358        23.8741 
 204   0.0000       0.892650        24.2902 
 205   0.0000       0.903777        24.5930 
 206   0.0000       0.910960        24.7885 
 207   0.0000       0.913121        24.8473 
 208   0.0000       0.923579        25.1318 
 209   0.0000       0.928648        25.2698 
 210   0.0000       0.935236        25.4491 
 211   0.0000       0.949988        25.8505 
 212   0.0000       0.954508        25.9735 
 213   0.0000       0.961449        26.1624 
 214   0.0000       0.973785        26.4980 
 215   0.0000       0.980929        26.6924 
 216   0.0000       0.997037        27.1308 
 217   0.0000       1.008301        27.4373 
 218   0.0000       1.017152        27.6781 
 219   0.0000       1.021289        27.7907 
 220   0.0000       1.042179        28.3591 
 221   0.0000       1.062725        28.9182 
 222   0.0000       1.071917        29.1683 
 223   0.0000       1.077385        29.3171 
 224   0.0000       1.080809        29.4103 
 225   0.0000       1.093453        29.7544 
 226   0.0000       1.105067        30.0704 
 227   0.0000       1.105861        30.0920 
 228   0.0000       1.118966        30.4486 
 229   0.0000       1.134151        30.8618 
 230   0.0000       1.140331        31.0300 
 231   0.0000       1.145981        31.1837 
 232   0.0000       1.159688        31.5567 
 233   0.0000       1.161157        31.5967 
 234   0.0000       1.171376        31.8748 
 235   0.0000       1.179257        32.0892 
 236   0.0000       1.183217        32.1970 
 237   0.0000       1.207922        32.8692 
 238   0.0000       1.213786        33.0288 
 239   0.0000       1.220432        33.2096 
 240   0.0000       1.242616        33.8133 
 241   0.0000       1.248083        33.9621 
 242   0.0000       1.263720        34.3876 
 243   0.0000       1.269051        34.5326 
 244   0.0000       1.277479        34.7620 
 245   0.0000       1.287627        35.0381 
 246   0.0000       1.294485        35.2247 
 247   0.0000       1.303724        35.4761 
 248   0.0000       1.317955        35.8634 
 249   0.0000       1.332421        36.2570 
 250   0.0000       1.366910        37.1955 
 251   0.0000       1.370418        37.2910 
 252   0.0000       1.390746        37.8441 
 253   0.0000       1.407378        38.2967 
 254   0.0000       1.416436        38.5432 
 255   0.0000       1.447510        39.3888 
 256   0.0000       1.456982        39.6465 
 257   0.0000       1.473134        40.0860 
 258   0.0000       1.487618        40.4802 
 259   0.0000       1.521449        41.4007 
 260   0.0000       1.538597        41.8674 
 261   0.0000       1.559403        42.4335 
 262   0.0000       1.572649        42.7939 
 263   0.0000       1.591475        43.3062 
 264   0.0000       1.606647        43.7191 
 265   0.0000       1.615383        43.9568 
 266   0.0000       1.640729        44.6465 
 267   0.0000       1.654647        45.0252 
 268   0.0000       1.686827        45.9009 
 269   0.0000       1.691059        46.0161 
 270   0.0000       1.712194        46.5912 
 271   0.0000       1.739634        47.3378 
 272   0.0000       1.749863        47.6162 
 273   0.0000       1.761382        47.9296 
 274   0.0000       1.780981        48.4629 
 275   0.0000       1.790674        48.7267 
 276   0.0000       1.800915        49.0054 
 277   0.0000       1.802429        49.0466 
 278   0.0000       1.827783        49.7365 
 279   0.0000       1.844379        50.1881 
 280   0.0000       1.845535        50.2196 
 281   0.0000       1.856671        50.5226 
 282   0.0000       1.862820        50.6899 
 283   0.0000       1.874053        50.9956 
 284   0.0000       1.881445        51.1967 
 285   0.0000       1.904658        51.8284 
 286   0.0000       1.906588        51.8809 
 287   0.0000       1.914706        52.1018 
 288   0.0000       1.922829        52.3228 
 289   0.0000       1.926024        52.4098 
 290   0.0000       1.936016        52.6817 
 291   0.0000       1.939404        52.7739 
 292   0.0000       1.951319        53.0981 
 293   0.0000       1.961998        53.3887 
 294   0.0000       1.975234        53.7489 
 295   0.0000       1.999357        54.4053 
 296   0.0000       2.016374        54.8683 
 297   0.0000       2.023907        55.0733 
 298   0.0000       2.039714        55.5034 
 299   0.0000       2.044036        55.6210 
 300   0.0000       2.050893        55.8076 
 301   0.0000       2.057514        55.9878 
 302   0.0000       2.059386        56.0388 
 303   0.0000       2.066495        56.2322 
 304   0.0000       2.069672        56.3186 
 305   0.0000       2.075095        56.4662 
 306   0.0000       2.082234        56.6605 
 307   0.0000       2.087539        56.8048 
 308   0.0000       2.096728        57.0549 
 309   0.0000       2.102863        57.2218 
 310   0.0000       2.110451        57.4283 
 311   0.0000       2.116806        57.6012 
 312   0.0000       2.129223        57.9391 
 313   0.0000       2.134184        58.0741 
 314   0.0000       2.142089        58.2892 
 315   0.0000       2.150860        58.5279 
 316   0.0000       2.152148        58.5629 
 317   0.0000       2.162731        58.8509 
 318   0.0000       2.173206        59.1360 
 319   0.0000       2.183694        59.4213 
 320   0.0000       2.203531        59.9611 
 321   0.0000       2.214474        60.2589 
 322   0.0000       2.244654        61.0801 
 323   0.0000       2.250939        61.2512 
 324   0.0000       2.257139        61.4199 
 325   0.0000       2.267674        61.7065 
 326   0.0000       2.301141        62.6172 
 327   0.0000       2.303518        62.6819 
 328   0.0000       2.314690        62.9859 
 329   0.0000       2.334297        63.5194 
 330   0.0000       2.338909        63.6450 
 331   0.0000       2.352696        64.0201 
 332   0.0000       2.357985        64.1640 
 333   0.0000       2.366906        64.4068 
 334   0.0000       2.371769        64.5391 
 335   0.0000       2.391409        65.0736 
 336   0.0000       2.404181        65.4211 
 337   0.0000       2.418265        65.8043 
 338   0.0000       2.436170        66.2915 
 339   0.0000       2.447705        66.6054 
 340   0.0000       2.452832        66.7449 
 341   0.0000       2.456862        66.8546 
 342   0.0000       2.465560        67.0913 
 343   0.0000       2.469158        67.1892 
 344   0.0000       2.471963        67.2655 
 345   0.0000       2.477741        67.4228 
 346   0.0000       2.484690        67.6119 
 347   0.0000       2.490705        67.7755 
 348   0.0000       2.497428        67.9585 
 349   0.0000       2.523691        68.6731 
 350   0.0000       2.540119        69.1201 
 351   0.0000       2.547499        69.3210 
 352   0.0000       2.565076        69.7993 
 353   0.0000       2.593201        70.5646 
 354   0.0000       2.598066        70.6970 
 355   0.0000       2.615618        71.1746 
 356   0.0000       2.617935        71.2376 
 357   0.0000       2.625019        71.4304 
 358   0.0000       2.635717        71.7215 
 359   0.0000       2.647508        72.0424 
 360   0.0000       2.682005        72.9811 
 361   0.0000       2.684206        73.0410 
 362   0.0000       2.709732        73.7356 
 363   0.0000       2.750067        74.8331 
 364   0.0000       2.760829        75.1260 
 365   0.0000       2.771916        75.4277 
 366   0.0000       2.796535        76.0976 
 367   0.0000       2.827513        76.9405 
 368   0.0000       2.841923        77.3327 
 369   0.0000       2.869471        78.0823 
 370   0.0000       2.879705        78.3607 
 371   0.0000       2.894605        78.7662 
 372   0.0000       2.903211        79.0004 
 373   0.0000       2.907537        79.1181 
 374   0.0000       2.910424        79.1967 
 375   0.0000       2.924269        79.5734 
 376   0.0000       2.932083        79.7860 
 377   0.0000       2.932915        79.8087 
 378   0.0000       2.949005        80.2465 
 379   0.0000       2.959636        80.5358 
 380   0.0000       2.967115        80.7393 
 381   0.0000       2.978163        81.0399 
 382   0.0000       2.987572        81.2960 
 383   0.0000       2.996898        81.5497 
 384   0.0000       3.009286        81.8868 
 385   0.0000       3.012476        81.9736 
 386   0.0000       3.024161        82.2916 
 387   0.0000       3.032778        82.5261 
 388   0.0000       3.041639        82.7672 
 389   0.0000       3.046630        82.9030 
 390   0.0000       3.053750        83.0968 
 391   0.0000       3.068836        83.5073 
 392   0.0000       3.070904        83.5636 
 393   0.0000       3.077877        83.7533 
 394   0.0000       3.086223        83.9804 
 395   0.0000       3.096415        84.2577 
 396   0.0000       3.106615        84.5353 
 397   0.0000       3.111719        84.6742 
 398   0.0000       3.115809        84.7855 
 399   0.0000       3.121766        84.9476 
 400   0.0000       3.127384        85.1004 
 401   0.0000       3.133644        85.2708 
 402   0.0000       3.143636        85.5427 
 403   0.0000       3.147525        85.6485 
 404   0.0000       3.152071        85.7722 
 405   0.0000       3.160503        86.0017 
 406   0.0000       3.168943        86.2313 
 407   0.0000       3.172165        86.3190 
 408   0.0000       3.190585        86.8202 
 409   0.0000       3.198440        87.0340 
 410   0.0000       3.205061        87.2141 
 411   0.0000       3.209334        87.3304 
 412   0.0000       3.216384        87.5222 
 413   0.0000       3.221148        87.6519 
 414   0.0000       3.232228        87.9534 
 415   0.0000       3.240572        88.1805 
 416   0.0000       3.249324        88.4186 
 417   0.0000       3.258012        88.6550 
 418   0.0000       3.262774        88.7846 
 419   0.0000       3.275849        89.1404 
 420   0.0000       3.277053        89.1731 
 421   0.0000       3.282727        89.3275 
 422   0.0000       3.292071        89.5818 
 423   0.0000       3.303218        89.8851 
 424   0.0000       3.318756        90.3079 
 425   0.0000       3.329508        90.6005 
 426   0.0000       3.345347        91.0315 
 427   0.0000       3.350025        91.1588 
 428   0.0000       3.360696        91.4492 
 429   0.0000       3.374927        91.8364 
 430   0.0000       3.380224        91.9806 
 431   0.0000       3.393551        92.3432 
 432   0.0000       3.414998        92.9268 
 433   0.0000       3.425482        93.2121 
 434   0.0000       3.447208        93.8033 
 435   0.0000       3.458259        94.1040 
 436   0.0000       3.487771        94.9071 
 437   0.0000       3.497902        95.1827 
 438   0.0000       3.502963        95.3205 
 439   0.0000       3.528152        96.0059 
 440   0.0000       3.546518        96.5056 
 441   0.0000       3.557633        96.8081 
 442   0.0000       3.570311        97.1531 
 443   0.0000       3.583314        97.5069 
 444   0.0000       3.591509        97.7299 
 445   0.0000       3.611426        98.2719 
 446   0.0000       3.620918        98.5302 
 447   0.0000       3.641983        99.1034 
 448   0.0000       3.664782        99.7238 
 449   0.0000       3.687775       100.3495 
 450   0.0000       3.700450       100.6944 
 451   0.0000       3.710935       100.9797 
 452   0.0000       3.726089       101.3920 
 453   0.0000       3.753746       102.1446 
 454   0.0000       3.757228       102.2394 
 455   0.0000       3.770097       102.5896 
 456   0.0000       3.790616       103.1479 
 457   0.0000       3.804360       103.5219 
 458   0.0000       3.810025       103.6760 
 459   0.0000       3.822471       104.0147 
 460   0.0000       3.837041       104.4112 
 461   0.0000       3.849727       104.7564 
 462   0.0000       3.854224       104.8788 
 463   0.0000       3.860687       105.0546 
 464   0.0000       3.870579       105.3238 
 465   0.0000       3.886100       105.7461 
 466   0.0000       3.897304       106.0510 
 467   0.0000       3.907258       106.3219 
 468   0.0000       3.920488       106.6819 
 469   0.0000       3.934139       107.0534 
 470   0.0000       3.941580       107.2558 
 471   0.0000       3.960344       107.7664 
 472   0.0000       3.966667       107.9385 
 473   0.0000       3.974608       108.1546 
 474   0.0000       3.985571       108.4529 
 475   0.0000       3.996656       108.7545 
 476   0.0000       4.001438       108.8847 
 477   0.0000       4.018875       109.3591 
 478   0.0000       4.032199       109.7217 
 479   0.0000       4.039819       109.9291 
 480   0.0000       4.050219       110.2121 
 481   0.0000       4.053548       110.3027 
 482   0.0000       4.060430       110.4899 
 483   0.0000       4.087219       111.2189 
 484   0.0000       4.099483       111.5526 
 485   0.0000       4.104812       111.6976 
 486   0.0000       4.107151       111.7613 
 487   0.0000       4.115676       111.9932 
 488   0.0000       4.122013       112.1657 
 489   0.0000       4.129874       112.3796 
 490   0.0000       4.145957       112.8172 
 491   0.0000       4.150953       112.9532 
 492   0.0000       4.159239       113.1786 
 493   0.0000       4.162599       113.2701 
 494   0.0000       4.173606       113.5696 
 495   0.0000       4.191626       114.0599 
 496   0.0000       4.222072       114.8884 
 497   0.0000       4.247470       115.5795 
 498   0.0000       4.254593       115.7734 
 499   0.0000       4.267157       116.1153 
 500   0.0000       4.280899       116.4892 
 501   0.0000       4.302426       117.0750 
 502   0.0000       4.313262       117.3698 
 503   0.0000       4.372963       118.9944 
 504   0.0000       4.396276       119.6287 
 505   0.0000       4.504083       122.5623 
 506   0.0000       4.584036       124.7380 
 507   0.0000       4.593129       124.9854 
 508   0.0000       4.660216       126.8109 
 509   0.0000       4.710383       128.1760 
 510   0.0000       4.757180       129.4495 
 511   0.0000       4.806961       130.8040 
 512   0.0000       4.921836       133.9300 
 513   0.0000       4.951540       134.7383 
 514   0.0000       4.995971       135.9473 
 515   0.0000       5.125391       139.4690 
 516   0.0000       5.138875       139.8359 
 517   0.0000       5.189084       141.2022 
 518   0.0000       5.198996       141.4719 
 519   0.0000       5.203322       141.5896 
 520   0.0000       5.205916       141.6602 
 521   0.0000       5.210843       141.7942 
 522   0.0000       5.230813       142.3377 
 523   0.0000       5.260868       143.1555 
 524   0.0000       5.291114       143.9785 
 525   0.0000       5.300268       144.2276 
 526   0.0000       5.324731       144.8933 
 527   0.0000       5.333366       145.1283 
 528   0.0000       5.340870       145.3325 
 529   0.0000       5.376007       146.2886 
 530   0.0000       5.417413       147.4153 
 531   0.0000       5.457939       148.5181 
 532   0.0000       5.475681       149.0008 
 533   0.0000       5.513602       150.0327 
 534   0.0000       5.564363       151.4140 
 535   0.0000       5.640768       153.4931 
 536   0.0000       5.683737       154.6623 
 537   0.0000       5.741767       156.2414 
 538   0.0000       5.827221       158.5668 
 539   0.0000       5.914097       160.9307 
 540   0.0000       6.152380       167.4148 
 541   0.0000       6.222076       169.3113 
 542   0.0000       6.334922       172.3820 
 543   0.0000       6.366172       173.2323 
 544   0.0000       6.405317       174.2975 
 545   0.0000       6.426131       174.8639 
 546   0.0000       6.726797       183.0455 
 547   0.0000       6.762261       184.0105 
 548   0.0000       6.777426       184.4231 
 549   0.0000       6.798864       185.0065 
 550   0.0000       6.802029       185.0926 
 551   0.0000       6.803602       185.1354 
 552   0.0000       6.805306       185.1818 
 553   0.0000       6.806681       185.2192 
 554   0.0000       6.806788       185.2221 
 555   0.0000       6.807117       185.2311 
 556   0.0000       6.810421       185.3210 
 557   0.0000       6.811209       185.3424 
 558   0.0000       6.812213       185.3697 
 559   0.0000       6.812994       185.3910 
 560   0.0000       6.814557       185.4335 
 561   0.0000       6.815664       185.4636 
 562   0.0000       6.817733       185.5199 
 563   0.0000       6.818662       185.5452 
 564   0.0000       6.818981       185.5539 
 565   0.0000       6.823396       185.6740 
 566   0.0000       6.823889       185.6875 
 567   0.0000       6.824894       185.7148 
 568   0.0000       6.826512       185.7588 
 569   0.0000       6.829638       185.8439 
 570   0.0000       6.830642       185.8712 
 571   0.0000       6.831069       185.8828 
 572   0.0000       6.832172       185.9128 
 573   0.0000       6.832811       185.9302 
 574   0.0000       6.834844       185.9856 
 575   0.0000       6.835803       186.0117 
 576   0.0000       6.837297       186.0523 
 577   0.0000       6.842731       186.2002 
 578   0.0000       6.843882       186.2315 
 579   0.0000       6.844327       186.2436 
 580   0.0000       6.846369       186.2992 
 581   0.0000       6.848894       186.3679 
 582   0.0000       6.850626       186.4150 
 583   0.0000       6.853850       186.5027 
 584   0.0000       6.856541       186.5760 
 585   0.0000       6.858692       186.6345 
 586   0.0000       6.862102       186.7273 
 587   0.0000       6.866775       186.8544 
 588   0.0000       6.872493       187.0100 
 589   0.0000       6.881912       187.2664 
 590   0.0000       6.894693       187.6141 
 591   0.0000       6.918403       188.2593 
 592   0.0000       6.936868       188.7618 
 593   0.0000       6.941556       188.8893 
 594   0.0000       6.944235       188.9623 
 595   0.0000       6.948644       189.0822 
 596   0.0000       6.952835       189.1963 
[...]
      dxy     :    -0.000074
      f0      :    -0.000028  f :    -0.000097
      f+1     :    -0.000016
      f-1     :    -0.000025
      f+2     :    -0.000016
      f-2     :    -0.000011
      f+3     :    -0.000001
      f-3     :     0.000001
  2 O s       :     0.000298  s :     0.000298
      pz      :     0.004921  p :     0.040640
      px      :     0.011082
      py      :     0.024637
      dz2     :    -0.000255  d :    -0.000928
      dxz     :    -0.000078
      dyz     :    -0.000129
      dx2y2   :    -0.000141
      dxy     :    -0.000325
      f0      :     0.000002  f :    -0.000096
      f+1     :    -0.000031
      f-1     :    -0.000002
      f+2     :    -0.000015
      f-2     :    -0.000020
      f+3     :    -0.000012
      f-3     :    -0.000018
  3 C s       :     0.023336  s :     0.023336
      pz      :     0.059637  p :     0.597100
      px      :     0.155622
      py      :     0.381841
      dz2     :     0.001500  d :     0.003875
      dxz     :     0.000797
      dyz     :     0.003722
      dx2y2   :    -0.000597
      dxy     :    -0.001547
      f0      :     0.000433  f :     0.000691
      f+1     :     0.000182
      f-1     :     0.000646
      f+2     :    -0.000086
      f-2     :     0.000338
      f+3     :    -0.000178
      f-3     :    -0.000644
  4 C s       :    -0.001925  s :    -0.001925
      pz      :    -0.000273  p :     0.000175
      px      :    -0.007321
      py      :     0.007769
      dz2     :     0.006968  d :     0.066700
      dxz     :     0.001080
      dyz     :     0.003384
      dx2y2   :     0.037311
      dxy     :     0.017957
      f0      :     0.000597  f :     0.007404
      f+1     :     0.000604
      f-1     :     0.000113
      f+2     :     0.000686
      f-2     :     0.001549
      f+3     :     0.003715
      f-3     :     0.000139
  5 C s       :     0.003209  s :     0.003209
      pz      :     0.001557  p :     0.017726
      px      :     0.007861
      py      :     0.008307
      dz2     :     0.000666  d :     0.005876
      dxz     :     0.000024
      dyz     :     0.000096
      dx2y2   :     0.004922
      dxy     :     0.000168
      f0      :     0.000001  f :     0.000014
      f+1     :    -0.000013
      f-1     :    -0.000015
      f+2     :    -0.000008
      f-2     :     0.000035
      f+3     :     0.000046
      f-3     :    -0.000033
  6 C s       :     0.000444  s :     0.000444
      pz      :     0.000236  p :     0.003908
      px      :     0.002079
      py      :     0.001593
      dz2     :     0.000225  d :     0.002562
      dxz     :     0.000027
      dyz     :     0.000084
      dx2y2   :     0.001732
      dxy     :     0.000494
      f0      :     0.000017  f :     0.000175
      f+1     :     0.000008
      f-1     :    -0.000009
      f+2     :     0.000006
      f-2     :     0.000008
      f+3     :     0.000143
      f-3     :     0.000002
  7 C s       :     0.000174  s :     0.000174
      pz      :     0.000049  p :     0.001272
      px      :     0.000447
      py      :     0.000776
      dz2     :     0.000047  d :     0.000749
      dxz     :     0.000007
      dyz     :    -0.000002
      dx2y2   :     0.000702
      dxy     :    -0.000005
      f0      :     0.000003  f :     0.000055
      f+1     :     0.000001
      f-1     :     0.000001
      f+2     :     0.000009
      f-2     :    -0.000001
      f+3     :     0.000025
      f-3     :     0.000016
  8 C s       :     0.000048  s :     0.000048
      pz      :     0.000034  p :     0.000419
      px      :     0.000259
      py      :     0.000126
      dz2     :     0.000018  d :     0.000240
      dxz     :     0.000004
      dyz     :     0.000003
      dx2y2   :     0.000151
      dxy     :     0.000063
      f0      :    -0.000000  f :     0.000017
      f+1     :     0.000001
      f-1     :     0.000000
      f+2     :     0.000003
      f-2     :     0.000004
      f+3     :     0.000010
      f-3     :     0.000000
  9 C s       :     0.000034  s :     0.000034
      pz      :     0.000021  p :     0.000120
      px      :     0.000038
      py      :     0.000061
      dz2     :     0.000002  d :     0.000037
      dxz     :     0.000003
      dyz     :     0.000002
      dx2y2   :     0.000025
      dxy     :     0.000005
      f0      :     0.000001  f :     0.000011
      f+1     :     0.000001
      f-1     :    -0.000000
      f+2     :     0.000000
      f-2     :     0.000003
      f+3     :     0.000005
      f-3     :     0.000001
 10 F s       :     0.001953  s :     0.001953
      pz      :     0.001290  p :     0.088014
      px      :     0.025067
      py      :     0.061657
      dz2     :     0.002280  d :     0.009120
      dxz     :     0.001757
      dyz     :     0.004533
      dx2y2   :     0.000039
      dxy     :     0.000512
      f0      :     0.000164  f :     0.000448
      f+1     :     0.000054
      f-1     :     0.000163
      f+2     :     0.000005
      f-2     :     0.000059
      f+3     :     0.000002
      f-3     :     0.000001
 11 F s       :     0.000910  s :     0.000910
      pz      :     0.003185  p :     0.007409
      px      :     0.001368
      py      :     0.002857
      dz2     :    -0.000025  d :    -0.000088
      dxz     :    -0.000006
      dyz     :     0.000084
      dx2y2   :    -0.000028
      dxy     :    -0.000112
      f0      :     0.000002  f :    -0.000006
      f+1     :    -0.000000
      f-1     :    -0.000002
      f+2     :    -0.000000
      f-2     :    -0.000001
      f+3     :    -0.000004
      f-3     :    -0.000001
 12 F s       :     0.001275  s :     0.001275
      pz      :     0.008071  p :     0.008642
      px      :     0.001057
      py      :    -0.000486
      dz2     :     0.000011  d :    -0.000118
      dxz     :    -0.000132
      dyz     :    -0.000054
      dx2y2   :     0.000068
      dxy     :    -0.000011
      f0      :     0.000000  f :    -0.000008
      f+1     :    -0.000006
      f-1     :    -0.000002
      f+2     :     0.000001
      f-2     :    -0.000001
      f+3     :     0.000000
      f-3     :     0.000000
 13 F s       :     0.000014  s :     0.000014
      pz      :     0.000633  p :     0.000881
      px      :    -0.000052
      py      :     0.000300
      dz2     :     0.000025  d :     0.000206
      dxz     :     0.000018
      dyz     :     0.000016
      dx2y2   :     0.000092
      dxy     :     0.000056
      f0      :     0.000001  f :     0.000014
      f+1     :     0.000001
      f-1     :     0.000001
      f+2     :     0.000002
      f-2     :     0.000004
      f+3     :     0.000002
      f-3     :     0.000003
 14 F s       :     0.000300  s :     0.000300
      pz      :     0.000263  p :     0.000784
      px      :     0.000395
      py      :     0.000126
      dz2     :     0.000015  d :     0.000230
      dxz     :     0.000007
      dyz     :     0.000028
      dx2y2   :     0.000170
      dxy     :     0.000010
      f0      :     0.000000  f :     0.000013
      f+1     :     0.000004
      f-1     :     0.000001
      f+2     :     0.000005
      f-2     :     0.000001
      f+3     :     0.000001
      f-3     :     0.000001
 15 F s       :     0.000004  s :     0.000004
      pz      :     0.000039  p :     0.000293
      px      :     0.000047
      py      :     0.000207
      dz2     :     0.000008  d :     0.000057
      dxz     :     0.000014
      dyz     :     0.000004
      dx2y2   :     0.000012
      dxy     :     0.000020
      f0      :     0.000001  f :     0.000003
      f+1     :     0.000000
      f-1     :     0.000000
      f+2     :     0.000000
      f-2     :     0.000001
      f+3     :     0.000001
      f-3     :    -0.000000
 16 F s       :     0.000060  s :     0.000060
      pz      :     0.000056  p :    -0.000090
      px      :    -0.000044
      py      :    -0.000102
      dz2     :     0.000001  d :     0.000028
      dxz     :     0.000008
      dyz     :     0.000001
      dx2y2   :     0.000015
      dxy     :     0.000003
      f0      :    -0.000000  f :     0.000002
      f+1     :     0.000000
      f-1     :     0.000000
      f+2     :     0.000000
      f-2     :     0.000001
      f+3     :     0.000000
      f-3     :     0.000000
 17 F s       :     0.000011  s :     0.000011
      pz      :     0.000008  p :    -0.000032
      px      :    -0.000018
      py      :    -0.000022
      dz2     :    -0.000000  d :     0.000009
      dxz     :     0.000004
      dyz     :     0.000000
      dx2y2   :     0.000005
      dxy     :    -0.000001
      f0      :    -0.000000  f :     0.000001
      f+1     :     0.000000
      f-1     :     0.000000
      f+2     :     0.000000
      f-2     :     0.000000
      f+3     :     0.000000
      f-3     :     0.000000
 18 F s       :     0.000001  s :     0.000001
      pz      :    -0.000031  p :     0.000098
      px      :     0.000031
      py      :     0.000098
      dz2     :     0.000002  d :     0.000019
      dxz     :     0.000007
      dyz     :     0.000007
      dx2y2   :     0.000003
      dxy     :     0.000000
      f0      :     0.000000  f :     0.000001
      f+1     :     0.000000
      f-1     :     0.000000
      f+2     :     0.000000
      f-2     :     0.000000
      f+3     :     0.000000
      f-3     :     0.000000
 19 F s       :     0.000004  s :     0.000004
      pz      :     0.000004  p :    -0.000012
      px      :    -0.000007
      py      :    -0.000010
      dz2     :    -0.000000  d :     0.000003
      dxz     :     0.000000
      dyz     :     0.000001
      dx2y2   :     0.000001
      dxy     :     0.000001
      f0      :     0.000000  f :     0.000000
      f+1     :    -0.000000
      f-1     :     0.000000
      f+2     :     0.000000
      f-2     :     0.000000
      f+3     :     0.000000
      f-3     :     0.000000
 20 F s       :     0.000000  s :     0.000000
      pz      :    -0.000014  p :     0.000022
      px      :     0.000020
      py      :     0.000016
      dz2     :     0.000001  d :     0.000006
      dxz     :     0.000004
      dyz     :     0.000001
      dx2y2   :     0.000000
      dxy     :     0.000000
      f0      :     0.000000  f :     0.000000
      f+1     :     0.000000
      f-1     :     0.000000
      f+2     :     0.000000
      f-2     :     0.000000
      f+3     :     0.000000
      f-3     :    -0.000000
 21 F s       :    -0.000001  s :    -0.000001
      pz      :     0.000002  p :    -0.000005
      px      :    -0.000001
      py      :    -0.000006
      dz2     :    -0.000000  d :     0.000001
      dxz     :     0.000000
      dyz     :     0.000000
      dx2y2   :     0.000001
      dxy     :    -0.000000
      f0      :     0.000000  f :     0.000000
      f+1     :    -0.000000
      f-1     :     0.000000
      f+2     :     0.000000
      f-2     :     0.000000
      f+3     :     0.000000
      f-3     :     0.000000
 22 F s       :     0.000006  s :     0.000006
      pz      :    -0.000000  p :     0.000080
      px      :     0.000073
      py      :     0.000007
      dz2     :     0.000001  d :     0.000004
      dxz     :     0.000000
      dyz     :     0.000000
      dx2y2   :     0.000003
      dxy     :     0.000000
      f0      :     0.000000  f :     0.000000
      f+1     :     0.000000
      f-1     :     0.000000
      f+2     :     0.000000
      f-2     :     0.000000
      f+3     :     0.000000
      f-3     :     0.000000
 23 F s       :     0.000000  s :     0.000000
      pz      :    -0.000002  p :     0.000004
      px      :    -0.000002
      py      :     0.000008
      dz2     :     0.000000  d :     0.000001
      dxz     :     0.000000
      dyz     :     0.000001
      dx2y2   :    -0.000000
      dxy     :     0.000000
      f0      :     0.000000  f :     0.000000
      f+1     :     0.000000
      f-1     :     0.000000
      f+2     :    -0.000000
      f-2     :     0.000000
      f+3     :    -0.000000
      f-3     :    -0.000000


                      *****************************
                      * MAYER POPULATION ANALYSIS *
                      *****************************

  NA   - Mulliken gross atomic population
  ZA   - Total nuclear charge
  QA   - Mulliken gross atomic charge
  VA   - Mayer's total valence
  BVA  - Mayer's bonded valence
  FA   - Mayer's free valence

  ATOM       NA         ZA         QA         VA         BVA        FA
  0 C      5.8073     6.0000     0.1927     4.6791     4.6767     0.0025
  1 O      8.4958     8.0000    -0.4958     1.9492     1.9420     0.0072
  2 O      8.5053     8.0000    -0.5053     1.9511     1.9489     0.0022
  3 C      5.9414     6.0000     0.0586     3.5598     3.0232     0.5366
  4 C      5.5754     6.0000     0.4246     4.1363     4.1334     0.0029
  5 C      5.7102     6.0000     0.2898     4.1148     4.1134     0.0014
  6 C      5.6654     6.0000     0.3346     4.1413     4.1413     0.0001
  7 C      5.6877     6.0000     0.3123     4.1257     4.1257     0.0000
  8 C      5.6746     6.0000     0.3254     4.1734     4.1734     0.0000
  9 C      5.5256     6.0000     0.4744     4.5186     4.5186     0.0000
 10 F      9.1917     9.0000    -0.1917     1.1038     1.0949     0.0089
 11 F      9.2028     9.0000    -0.2028     1.0927     1.0926     0.0001
 12 F      9.1850     9.0000    -0.1850     1.1138     1.1137     0.0001
 13 F      9.1725     9.0000    -0.1725     1.1464     1.1464     0.0000
 14 F      9.1850     9.0000    -0.1850     1.1261     1.1261     0.0000
 15 F      9.1727     9.0000    -0.1727     1.1422     1.1422     0.0000
 16 F      9.1719     9.0000    -0.1719     1.1455     1.1455     0.0000
 17 F      9.1699     9.0000    -0.1699     1.1496     1.1496     0.0000
 18 F      9.1689     9.0000    -0.1689     1.1497     1.1497     0.0000
 19 F      9.1669     9.0000    -0.1669     1.1524     1.1524     0.0000
 20 F      9.1633     9.0000    -0.1633     1.1534     1.1534     0.0000
 21 F      9.1550     9.0000    -0.1550     1.1632     1.1632     0.0000
 22 F      9.1531     9.0000    -0.1531     1.1664     1.1664     0.0000
 23 F      9.1526     9.0000    -0.1526     1.1664     1.1664     0.0000

  Mayer bond orders larger than 0.100000
B(  0-C ,  1-O ) :   1.8372 B(  0-C ,  2-O ) :   1.8587 B(  0-C ,  3-C ) :   0.9528 
B(  3-C ,  4-C ) :   0.9666 B(  3-C , 10-F ) :   1.0430 B(  4-C ,  5-C ) :   0.9224 
B(  4-C , 11-F ) :   1.0441 B(  4-C , 12-F ) :   1.0922 B(  5-C ,  6-C ) :   0.9245 
B(  5-C , 13-F ) :   1.0935 B(  5-C , 14-F ) :   1.0621 B(  6-C ,  7-C ) :   0.9272 
B(  6-C , 15-F ) :   1.0772 B(  6-C , 16-F ) :   1.0819 B(  7-C ,  8-C ) :   0.9235 
B(  7-C , 17-F ) :   1.0797 B(  7-C , 18-F ) :   1.0868 B(  8-C ,  9-C ) :   0.9691 
B(  8-C , 19-F ) :   1.0862 B(  8-C , 20-F ) :   1.0956 B(  9-C , 21-F ) :   1.1460 
B(  9-C , 22-F ) :   1.1467 B(  9-C , 23-F ) :   1.1566 

-------
TIMINGS
-------

Total SCF time: 0 days 0 hours 0 min 56 sec 

Total time                  ....      56.152 sec
Sum of individual times     ....      53.811 sec  ( 95.8%)

Fock matrix formation       ....      47.143 sec  ( 84.0%)
  Split-RI-J                ....       2.737 sec  (  5.8% of F)
  Chain of spheres X        ....      35.216 sec  ( 74.7% of F)
  XC integration            ....       5.406 sec  ( 11.5% of F)
    Basis function eval.    ....       0.583 sec  ( 10.8% of XC)
    Density eval.           ....       1.548 sec  ( 28.6% of XC)
    XC-Functional eval.     ....       0.217 sec  (  4.0% of XC)
    XC-Potential eval.      ....       0.858 sec  ( 15.9% of XC)
Diagonalization             ....       2.631 sec  (  4.7%)
Density matrix formation    ....       0.114 sec  (  0.2%)
Population analysis         ....       0.263 sec  (  0.5%)
Initial guess               ....       0.469 sec  (  0.8%)
Orbital Transformation      ....       0.000 sec  (  0.0%)
Orbital Orthonormalization  ....       0.403 sec  (  0.7%)
DIIS solution               ....       0.912 sec  (  1.6%)
Grid generation             ....       2.279 sec  (  4.1%)

Maximum memory used throughout the entire SCF-calculation: 160.9 MB


-------------------------------------------------------------------------------
                          DFT DISPERSION CORRECTION                            
                                                                               
                              DFTD3 V3.1  Rev 1                                
                          USING Becke-Johnson damping                          
-------------------------------------------------------------------------------
The B3LYP functional is recognized
Active option DFTDOPT                   ...         4   

molecular C6(AA) [au] = 6302.839291 


            DFT-D V3
 parameters
 s6 scaling factor         :     1.0000 
 a1 scaling factor         :     0.3981 
 s8 scaling factor         :     1.9889 
 a2 scaling factor         :     4.4211 
 ad hoc parameters k1-k3   :    16.0000     1.3333    -4.0000 

 Edisp/kcal,au: -26.573563476920  -0.042347664443 
 E6   /kcal   : -12.607201885 
 E8   /kcal   : -13.966361592 
 % E8         :  52.557353115 

-------------------------   ----------------
Dispersion correction           -0.042347664
-------------------------   ----------------


-------------------------   --------------------
FINAL SINGLE POINT ENERGY     -1853.283795400811
-------------------------   --------------------

                                *** OPTIMIZATION RUN DONE ***

                            ***************************************
                            *     ORCA property calculations      *
                            ***************************************

                                    ---------------------
                                    Active property flags
                                    ---------------------
   (+) Dipole Moment


------------------------------------------------------------------------------
                       ORCA ELECTRIC PROPERTIES CALCULATION
------------------------------------------------------------------------------

Dipole Moment Calculation                       ... on
Quadrupole Moment Calculation                   ... off
Polarizability Calculation                      ... off
GBWName                                         ... rf_mecn_opt_B3L_C2_D_B.gbw
Electron density                                ... rf_mecn_opt_B3L_C2_D_B.scfp
The origin for moment calculation is the CENTER OF MASS  = (-0.393749,  0.136984 -0.034146)

-------------
DIPOLE MOMENT
-------------
                                X             Y             Z
Electronic contribution:    -18.48198       3.26463       1.80761
Nuclear contribution   :     10.05855      -1.70478      -0.97878
                        -----------------------------------------
Total Dipole Moment    :     -8.42343       1.55985       0.82883
                        -----------------------------------------
Magnitude (a.u.)       :      8.60664
Magnitude (Debye)      :     21.87634



--------------------
Rotational spectrum 
--------------------
 
Rotational constants in cm-1:     0.020763     0.004182     0.004060 
Rotational constants in MHz :   622.446184   125.380239   121.723277 

 Dipole components along the rotational axes: 
x,y,z [a.u.] :    -8.356482     2.059740    -0.030643 
x,y,z [Debye]:   -21.240490     5.235443    -0.077889 

 

Timings for individual modules:

Sum of individual times         ...     4704.746 sec (=  78.412 min)
GTO integral calculation        ...       40.162 sec (=   0.669 min)   0.9 %
SCF iterations                  ...     3884.584 sec (=  64.743 min)  82.6 %
SCF Gradient evaluation         ...      777.838 sec (=  12.964 min)  16.5 %
Geometry relaxation             ...        2.161 sec (=   0.036 min)   0.0 %
                             ****ORCA TERMINATED NORMALLY****
TOTAL RUN TIME: 0 days 1 hours 18 minutes 40 seconds 711 msec
