
                                 *****************
                                 * O   R   C   A *
                                 *****************

                                            #,                                       
                                            ###                                      
                                            ####                                     
                                            #####                                    
                                            ######                                   
                                           ########,                                 
                                     ,,################,,,,,                         
                               ,,#################################,,                 
                          ,,##########################################,,             
                       ,#########################################, ''#####,          
                    ,#############################################,,   '####,        
                  ,##################################################,,,,####,       
                ,###########''''           ''''###############################       
              ,#####''   ,,,,##########,,,,          '''####'''          '####       
            ,##' ,,,,###########################,,,                        '##       
           ' ,,###''''                  '''############,,,                           
         ,,##''                                '''############,,,,        ,,,,,,###''
      ,#''                                            '''#######################'''  
     '                                                          ''''####''''         
             ,#######,   #######,   ,#######,      ##                                
            ,#'     '#,  ##    ##  ,#'     '#,    #''#        ,####,   ,####,        
            ##       ##  ##   ,#'  ##            #'  '#       #'       #'  '#        
            ##       ##  #######   ##           ,######,      #####,   #    #        
            '#,     ,#'  ##    ##  '#,     ,#' ,#      #,     #,   #   #,  ,#        
             '#######'   ##     ##  '#######'  #'      '#     '####' # '####'        



                #########################################################
                #                        -***-                          #
                #          Department of theory and spectroscopy        #
                #                                                       #
                #                      Frank Neese                      #
                #                                                       #
                #     Directorship, Architecture, Infrastructure        #
                #                    SHARK, DRIVERS                     #
                #        Core code/Algorithms in most modules           #
                #                                                       #
                #        Max Planck Institute fuer Kohlenforschung      #
                #                Kaiser Wilhelm Platz 1                 #
                #                 D-45470 Muelheim/Ruhr                 #
                #                      Germany                          #
                #                                                       #
                #                  All rights reserved                  #
                #                        -***-                          #
                #########################################################


                         Program Version 6.0.1  -  RELEASE   -


 With contributions from (in alphabetic order):
[Max-Planck-Institut fuer Kohlenforschung]                               
  Daniel Aravena         : Magnetic Suceptibility                        
  Michael Atanasov       : Ab Initio Ligand Field Theory (pilot matlab implementation)
  Alexander A. Auer      : GIAO ZORA, VPT2 properties, NMR spectrum      
  Ute Becker             : All parallelization in ORCA, NUMFREQ, NUMCALC 
  Giovanni Bistoni       : ED, misc. LED, open-shell LED, HFLD           
  Martin Brehm           : Molecular dynamics                            
  Dmytro Bykov           : pre 5.0 version of the SCF Hessian            
  Marcos Casanova-Páez   : Triplet and SCS-CIS(D). UHF-(DLPNO)-IP/EA/STEOM-CCSD. UHF-CVS-IP/STEOM-CCSD   
  Vijay G. Chilkuri      : MRCI spin determinant printing, contributions to CSF-ICE 
  Pauline Colinet        : FMM embedding                                 
  Dipayan Datta          : RHF DLPNO-CCSD density                        
  Achintya Kumar Dutta   : EOM-CC, STEOM-CC                              
  Nicolas Foglia         : Exact transition moments, OPA infrastructure, MCD improvements    
  Dmitry Ganyushin       : Spin-Orbit,Spin-Spin,Magnetic field MRCI      
  Miquel Garcia-Rates    : C-PCM and meta-GGA Hessian, CCSD/C-PCM, Gaussian charge scheme 
  Tiago L. C. Gouveia    : GS-ROHF, GS-ROCIS                             
  Yang Guo               : DLPNO-NEVPT2, F12-NEVPT2, CIM, IAO-localization        
  Andreas Hansen         : Spin unrestricted coupled pair/coupled cluster methods 
  Ingolf Harden          : AUTO-CI MPn and infrastructure                
  Benjamin Helmich-Paris : MC-RPA, TRAH-(SCF,CASSCF), AVAS, COSX integrals, SCF dyn. polar. 
  Lee Huntington         : MR-EOM, pCC                                   
  Robert Izsak           : Overlap fitted RIJCOSX, COSX-SCS-MP3, EOM     
  Riya Kayal             : Wick's Theorem for AUTO-CI, AUTO-CI UHF-CCSDT 
  Emily Kempfer          : AUTO-CI, RHF CISDT and CCSDT                  
  Christian Kollmar      : KDIIS, OOCD, Brueckner-CCSD(T), CCSD density, CASPT2, CASPT2-K, improved NEVPT2 
  Axel Koslowski         : Symmetry handling                             
  Simone Kossmann        : meta-GGA functionals, TD-DFT gradient, OOMP2, (MP2 Hessian; deprecated post 5.0) 
  Lucas Lang             : DCDCAS                                        
  Marvin Lechner         : AUTO-CI (C++ implementation), FIC-MRCC        
  Spencer Leger          : CASSCF response                               
  Dagmar Lenk            : GEPOL surface, SMD, ORCA-2-JSON               
  Dimitrios Liakos       : Extrapolation schemes; Compound Job, initial MDCI parallelization 
  Dimitrios Manganas     : Further ROCIS development; embedding schemes. LFT, Crystal Embedding 
  Dimitrios Pantazis     : SARC Basis sets                               
  Anastasios Papadopoulos: AUTO-CI, single reference methods and gradients 
  Taras Petrenko         : pre 6.0 DFT Hessian and TD-DFT gradient, (ASA, deprecated), ECA, 1-Electron XAS/XES, NRVS 
  Peter Pinski           : DLPNO-MP2, DLPNO-MP2 Gradient                 
  Christoph Reimann      : Effective Core Potentials                     
  Marius Retegan         : Local ZFS, SOC                                
  Christoph Riplinger    : Optimizer, TS searches, QM/MM, DLPNO-CCSD(T), (RO)-DLPNO pert. Triples 
  Michael Roemelt        : Original ROCIS implementation                 
  Masaaki Saitow         : Open-shell DLPNO-CCSD energy and density      
  Barbara Sandhoefer     : DKH picture change effects                    
  Kantharuban Sivalingam : CASSCF convergence/infrastructure, NEVPT2 and variants, FIC-MRCI 
  Bernardo de Souza      : ESD, SOC TD-DFT                               
  Georgi L. Stoychev     : AutoAux, RI-MP2 NMR, DLPNO-MP2 response, X2C  
  Van Anh Tran           : RI-MP2 g-tensors                              
  Willem Van den Heuvel  : Paramagnetic NMR                              
  Zikuan Wang            : NOTCH, Electric field optimization            
  Frank Wennmohs         : Technical directorship and infrastructure     
  Hang Xu                : AUTO-CI-Response properties                   
                                                                         
[FACCTs GmbH]                                                            
  Markus Bursch, Miquel Garcia-Rates, Christoph Riplinger, Bernardo de Souza, Georgi L. Stoychev 
                                                                 
  APM, Basis sets (HGBS, AHGBS, def-TZVP (Ac-Lr), def2-XVPD (La-Lu)), CI-OPT, improved COSX, DLPNO-Multilevel,           
  DOCKER, DRACO, updates on ESD, GOAT, IRC, LR-CPCM, MBIS, meta-GGA TD-DFT gradient, ML-optimized integration grids, 
  MM, NACMEs, nearIR, NEB, NEB-TS, NL-DFT gradient (VV10), 2- and 3-layer-ONIOM, interface openCOSMO-RS, QMMM,   
  Crystal-QMMM, SF, symmetry and pop. for TD-DFT, r2SCAN hybrids, SOLVATOR                                   
                                                                         
[Other institutions]                                                     
  V. Asgeirsson          : NEB                                           
  Christoph Bannwarth    : sTDA-DFT, sTD-DFT, PBEh-3c, B97-3c, D3        
  Sebastian Ehlert       : rSCAN, r2SCAN, r2SCAN-3c, D4, dhf basis sets  
  Marvin Friede          : D4 for Fr, Ra, Ac-Lr                          
  Lars Goerigk           : TD-DFT with DH, B97 family of functionals     
  Stefan Grimme          : VdW corrections, initial TS optimization, DFT functionals, gCP, sTDA/sTD-DF 
  Waldemar Hujo          : DFT-NL                                        
  H. Jonsson             : NEB                                           
  Holger Kruse           : gCP                                           
  Marcel Mueller         : wB97X-3c, vDZP basis set                      
  Hagen Neugebauer       : wr2SCAN                                       
  Tobias Risthaus        : range-separated hybrid DFT                    
  Lukas Wittmann         : regularized MP2, r2SCAN double-hybrids, wr2SCAN        
                                                                         
We gratefully acknowledge several colleagues who have allowed us to      
interface, adapt or use parts of their codes:                            
  Ed Valeev, F. Pavosevic, A. Kumar             : LibInt (2-el integral package), F12 methods 
  Garnet Chan, S. Sharma, J. Yang, R. Olivares  : DMRG                   
  Ulf Ekstrom                                   : XCFun DFT Library      
  Mihaly Kallay                                 : mrcc  (arbitrary order and MRCC methods)
  Frank Weinhold                                : gennbo (NPA and NBO analysis)           
  Simon Mueller                                 : openCOSMO-RS                            
  Christopher J. Cramer and Donald G. Truhlar   : smd solvation model                     
  S Lehtola, MJT Oliveira, MAL Marques          : LibXC Library                           
  Liviu Ungur et al                             : ANISO software                          


 Your calculation uses the libint2 library for the computation of 2-el integrals
 For citations please refer to: http://libint.valeyev.net

 Your ORCA version has been built with support for libXC version: 6.2.2
 For citations please refer to: https://libxc.gitlab.io

 This ORCA versions uses:
   CBLAS   interface :  Fast vector & matrix operations
   LAPACKE interface :  Fast linear algebra routines
   SCALAPACK package :  Parallel linear algebra routines
   Shared memory     :  Shared parallel matrices
   BLAS/LAPACK       :  OpenBLAS 0.3.27  USE64BITINT DYNAMIC_ARCH NO_AFFINITY SkylakeX SINGLE_THREADED
        Core in use  :  SkylakeX
   Copyright (c) 2011-2014, The OpenBLAS Project


NOTE: MaxCore=8000 MB was set to SCF,MP2,MDCI,CIPSI,MRCI and CIS
      => If you want to overwrite this, your respective input block should be placed after the MaxCore statement
Your calculation utilizes the atom-pairwise dispersion correction
with the Becke-Johnson damping scheme (D3BJ)


Your calculation utilizes the SMD solvation module
Please cite in your paper:
A.V. Marenich, C.J. Cramer, D.G. Truhlar J. Phys. Chem. B, 113, (2009), 6378 

Warning: RI is on but no J-basis has been assigned. Assigning Def2/J (nothing to worry about!)
================================================================================

----- Orbital basis set information -----
Your calculation utilizes the basis: def2-TZVP
   F. Weigend and R. Ahlrichs, Phys. Chem. Chem. Phys. 7, 3297 (2005).

----- AuxJ basis set information -----
Your calculation utilizes the auxiliary basis: def2/J
   F. Weigend, Phys. Chem. Chem. Phys. 8, 1057 (2006).

================================================================================
                                        WARNINGS
                       Please study these warnings very carefully!
================================================================================



WARNING: SCAN, rSCAN, or r2SCAN functional requested.
  ===> : libXC variant has now been activated.



WARNING: your system is open-shell and RHF/RKS was chosen
  ===> : WILL SWITCH to UHF/UKS


WARNING: Geometry Optimization
  ===> : Switching off AutoStart
         For restart on a previous wavefunction, please use MOREAD

================================================================================
                                       INPUT FILE
================================================================================
NAME = rf_mecn_opt_r2s_C4_D_B.inp
|  1> !r2scanh def2-TZVP opt d3 TightSCF SlowConv defgrid2
|  2> 
|  3> %pal
|  4> nprocs 20
|  5> end
|  6>  
|  7> %scf
|  8> MaxIter 1500
|  9> end
| 10>  
| 11> %maxcore 8000 #verificar
| 12>  
| 13> !CPCM
| 14> %cpcm smd true
| 15> SMDsolvent "ACETONITRILE"
| 16> end
| 17>  
| 18> * xyz -1 2
| 19> 6        4.790427000     -0.033865800     -0.529943200
| 20> 8        5.449345000     -1.206924000     -0.894594600
| 21> 8        4.978223000      1.323071000     -0.737377200
| 22> 6        3.506687600     -0.338741600      0.376153800
| 23> 6        2.222300000      0.400524800     -0.110681600
| 24> 6        0.900506800     -0.386389800      0.175703000
| 25> 6       -0.395261200      0.487294000      0.065549000
| 26> 6       -1.705693600     -0.364773800     -0.068373600
| 27> 6       -3.005136200      0.445344800      0.258164000
| 28> 6       -4.319880200     -0.214526000     -0.270540800
| 29> 9        3.211587400     -1.692050400      0.412735200
| 30> 9        3.741061800      0.055285800      1.689948800
| 31> 9        2.125696800      1.616867800      0.483236600
| 32> 9        2.314152400      0.589704000     -1.455769200
| 33> 9        0.958350600     -0.884509000      1.435093400
| 34> 9       -0.498373400      1.260265600      1.173340200
| 35> 9       -0.299075000      1.289512600     -1.020910800
| 36> 9       -1.641790400     -1.418189000      0.779523800
| 37> 9       -1.792381400     -0.831391600     -1.336863600
| 38> 9       -2.918792200      1.679227200     -0.295171200
| 39> 9       -3.119771000      0.573779800      1.598579800
| 40> 9       -4.383115600     -1.504377600      0.089127600
| 41> 9       -5.365669800      0.430528600      0.260394200
| 42> 9       -4.396020400     -0.128550600     -1.602941800
| 43> **                         ****END OF INPUT****
================================================================================

                       *****************************
                       * Geometry Optimization Run *
                       *****************************

Geometry optimization settings:
Update method            Update   .... BFGS
Choice of coordinates    CoordSys .... (2022) Redundant Internals
Initial Hessian          InHess   .... Almloef's Model
Max. no of cycles        MaxIter  .... 72

Convergence Tolerances:
Energy Change            TolE     ....  5.0000e-06 Eh
Max. Gradient            TolMAXG  ....  3.0000e-04 Eh/bohr
RMS Gradient             TolRMSG  ....  1.0000e-04 Eh/bohr
Max. Displacement        TolMAXD  ....  4.0000e-03 bohr
RMS Displacement         TolRMSD  ....  2.0000e-03 bohr
Strict Convergence                .... False

------------------------------------------------------------------------------
                        ORCA OPTIMIZATION COORDINATE SETUP
------------------------------------------------------------------------------

The optimization will be done in redundant internal coordinates (2022)
Making redundant internal coordinates   ...  (2022 redundants) done
Evaluating the initial hessian          ...  (Almloef) done
Evaluating the coordinates              ...  done
Calculating the B-matrix                .... done
Calculating the G-matrix                .... done
Diagonalizing the G-matrix              .... done
Small eigenvalue found = 5.481e-03
Small eigenvalue found = 1.551e-02
The first mode is                       ....   38
The number of degrees of freedom        ....   66

    -----------------------------------------------------------------
                    Redundant Internal Coordinates


    -----------------------------------------------------------------
         Definition                    Initial Value    Approx d2E/dq
    -----------------------------------------------------------------
      1. B(O   1,C   0)                  1.3940         0.551454   
      2. B(O   2,C   0)                  1.3855         0.568952   
      3. B(C   3,C   0)                  1.6006         0.288221   
      4. B(C   4,C   3)                  1.5599         0.334759   
      5. B(C   5,C   4)                  1.5647         0.328824   
      6. B(C   6,C   5)                  1.5667         0.326486   
      7. B(C   7,C   6)                  1.5688         0.323927   
      8. B(C   8,C   7)                  1.5657         0.327637   
      9. B(C   9,C   8)                  1.5632         0.330714   
     10. B(F  10,C   3)                  1.3856         0.528443   
     11. B(F  11,C   3)                  1.3915         0.517117   
     12. B(F  12,C   4)                  1.3570         0.586881   
     13. B(F  13,C   4)                  1.3614         0.577499   
     14. B(F  14,C   5)                  1.3556         0.590092   
     15. B(F  15,C   6)                  1.3547         0.591865   
     16. B(F  16,C   6)                  1.3540         0.593567   
     17. B(F  17,C   7)                  1.3538         0.593973   
     18. B(F  18,C   7)                  1.3544         0.592672   
     19. B(F  19,C   8)                  1.3550         0.591238   
     20. B(F  20,C   8)                  1.3514         0.599114   
     21. B(F  21,C   9)                  1.3406         0.623533   
     22. B(F  22,C   9)                  1.3385         0.628179   
     23. B(F  23,C   9)                  1.3373         0.630929   
     24. A(O   1,C   0,C   3)          111.5249         0.369222   
     25. A(O   1,C   0,O   2)          136.1318         0.413163   
     26. A(O   2,C   0,C   3)          112.3347         0.371210   
     27. A(C   4,C   3,F  10)          107.2033         0.374492   
     28. A(C   0,C   3,C   4)          113.1687         0.341363   
     29. A(C   0,C   3,F  10)          111.8265         0.364982   
     30. A(C   4,C   3,F  11)          107.4072         0.373095   
     31. A(C   0,C   3,F  11)          110.2099         0.363632   
     32. A(F  10,C   3,F  11)          106.7094         0.399684   
     33. A(C   3,C   4,F  12)          110.2926         0.381351   
     34. A(C   3,C   4,C   5)          113.5839         0.349005   
     35. A(F  12,C   4,F  13)          108.2194         0.415201   
     36. A(C   3,C   4,F  13)          108.5818         0.380286   
     37. A(C   5,C   4,F  13)          107.9208         0.379109   
     38. A(C   5,C   4,F  12)          108.0911         0.380169   
     39. A(C   4,C   5,C   6)          113.9128         0.347536   
     40. A(C   4,C   5,F  14)          108.5900         0.380529   
     41. A(C   6,C   5,F  14)          107.7906         0.380059   
     42. A(C   5,C   6,C   7)          113.2023         0.346660   
     43. A(F  15,C   6,F  16)          108.8752         0.417862   
     44. A(C   7,C   6,F  16)          108.2186         0.379927   
     45. A(C   5,C   6,F  16)          109.1523         0.380446   
     46. A(C   7,C   6,F  15)          108.4284         0.379738   
     47. A(C   5,C   6,F  15)          108.8835         0.380256   
     48. A(C   8,C   7,F  18)          108.6915         0.380579   
     49. A(C   6,C   7,F  18)          108.6955         0.379828   
     50. A(C   8,C   7,F  17)          108.1296         0.380723   
     51. A(C   6,C   7,F  17)          109.2524         0.379972   
     52. A(C   6,C   7,C   8)          113.2298         0.346865   
     53. A(F  17,C   7,F  18)          108.7561         0.418014   
     54. A(F  19,C   8,F  20)          108.8987         0.418476   
     55. A(C   7,C   8,C   9)          114.1471         0.348078   
     56. A(C   9,C   8,F  20)          107.7127         0.381912   
     57. A(C   7,C   8,F  20)          109.0521         0.381293   
     58. A(C   9,C   8,F  19)          107.4499         0.381036   
     59. A(C   7,C   8,F  19)          109.4572         0.380419   
     60. A(F  22,C   9,F  23)          108.6464         0.426961   
     61. A(F  21,C   9,F  23)          109.0552         0.426394   
     62. A(C   8,C   9,F  23)          110.9604         0.385362   
     63. A(F  21,C   9,F  22)          108.6877         0.426061   
     64. A(C   8,C   9,F  22)          108.6349         0.385069   
     65. A(C   8,C   9,F  21)          110.7995         0.384572   
     66. D(F  10,C   3,C   0,O   2)    171.0025         0.006601   
     67. D(F  10,C   3,C   0,O   1)     -9.8890         0.006601   
     68. D(C   4,C   3,C   0,O   1)   -131.0839         0.006601   
     69. D(C   4,C   3,C   0,O   2)     49.8076         0.006601   
     70. D(F  11,C   3,C   0,O   1)    108.6317         0.006601   
     71. D(C   5,C   4,C   3,F  10)     24.8733         0.009100   
     72. D(C   5,C   4,C   3,C   0)    148.6429         0.009100   
     73. D(F  12,C   4,C   3,F  10)    146.3851         0.009100   
     74. D(F  12,C   4,C   3,C   0)    -89.8453         0.009100   
     75. D(F  12,C   4,C   3,F  11)     32.0233         0.009100   
     76. D(C   5,C   4,C   3,F  11)    -89.4885         0.009100   
     77. D(C   6,C   5,C   4,F  13)    -75.6292         0.008276   
     78. D(C   6,C   5,C   4,C   3)    163.9326         0.008276   
     79. D(F  14,C   5,C   4,C   3)     43.8158         0.008276   
     80. D(C   6,C   5,C   4,F  12)     41.2001         0.008276   
     81. D(F  14,C   5,C   4,F  12)    -78.9166         0.008276   
     82. D(F  16,C   6,C   5,C   4)     42.3872         0.008172   
     83. D(F  15,C   6,C   5,F  14)     44.2190         0.008172   
     84. D(F  15,C   6,C   5,C   4)    -76.3465         0.008172   
     85. D(C   7,C   6,C   5,F  14)    -76.4529         0.008172   
     86. D(C   7,C   6,C   5,C   4)    162.9815         0.008172   
     87. D(F  17,C   7,C   6,F  15)    -79.1358         0.008578   
     88. D(F  17,C   7,C   6,C   5)     41.7939         0.008578   
     89. D(C   8,C   7,C   6,F  16)    -76.5134         0.008578   
     90. D(C   8,C   7,C   6,F  15)     41.4341         0.008578   
     91. D(F  17,C   7,C   6,F  16)    162.9167         0.008578   
     92. D(C   8,C   7,C   6,C   5)    162.3638         0.008578   
     93. D(F  19,C   8,C   7,C   6)     41.9584         0.008755   
     94. D(C   9,C   8,C   7,F  18)     41.5227         0.008755   
     95. D(C   9,C   8,C   7,F  17)    -76.3785         0.008755   
     96. D(C   9,C   8,C   7,C   6)    162.4166         0.008755   
     97. D(F  19,C   8,C   7,F  18)    -78.9355         0.008755   
     98. D(F  19,C   8,C   7,F  17)    163.1633         0.008755   
     99. D(F  22,C   9,C   8,F  19)    -69.0724         0.008903   
    100. D(F  22,C   9,C   8,C   7)    169.3552         0.008903   
    101. D(F  21,C   9,C   8,F  20)    -71.2185         0.008903   
    102. D(F  21,C   9,C   8,F  19)    171.5999         0.008903   
    103. D(F  22,C   9,C   8,F  20)     48.1091         0.008903   
    104. D(F  21,C   9,C   8,C   7)     50.0276         0.008903   
    -----------------------------------------------------------------

Number of atoms                         .... 24
Number of degrees of freedom            .... 104


         *************************************************************
         *                GEOMETRY OPTIMIZATION CYCLE   1            *
         *************************************************************
---------------------------------
CARTESIAN COORDINATES (ANGSTROEM)
---------------------------------
  C      4.790427   -0.033866   -0.529943
  O      5.449345   -1.206924   -0.894595
  O      4.978223    1.323071   -0.737377
  C      3.506688   -0.338742    0.376154
  C      2.222300    0.400525   -0.110682
  C      0.900507   -0.386390    0.175703
  C     -0.395261    0.487294    0.065549
  C     -1.705694   -0.364774   -0.068374
  C     -3.005136    0.445345    0.258164
  C     -4.319880   -0.214526   -0.270541
  F      3.211587   -1.692050    0.412735
  F      3.741062    0.055286    1.689949
  F      2.125697    1.616868    0.483237
  F      2.314152    0.589704   -1.455769
  F      0.958351   -0.884509    1.435093
  F     -0.498373    1.260266    1.173340
  F     -0.299075    1.289513   -1.020911
  F     -1.641790   -1.418189    0.779524
  F     -1.792381   -0.831392   -1.336864
  F     -2.918792    1.679227   -0.295171
  F     -3.119771    0.573780    1.598580
  F     -4.383116   -1.504378    0.089128
  F     -5.365670    0.430529    0.260394
  F     -4.396020   -0.128551   -1.602942

----------------------------
CARTESIAN COORDINATES (A.U.)
----------------------------
  NO LB      ZA    FRAG     MASS         X           Y           Z
   0 C     6.0000    0    12.011    9.052595   -0.063997   -1.001448
   1 O     8.0000    0    15.999   10.297770   -2.280756   -1.690539
   2 O     8.0000    0    15.999    9.407478    2.500242   -1.393441
   3 C     6.0000    0    12.011    6.626679   -0.640129    0.710828
   4 C     6.0000    0    12.011    4.199538    0.756882   -0.209158
   5 C     6.0000    0    12.011    1.701711   -0.730171    0.332031
   6 C     6.0000    0    12.011   -0.746935    0.920852    0.123870
   7 C     6.0000    0    12.011   -3.223294   -0.689323   -0.129207
   8 C     6.0000    0    12.011   -5.678884    0.841580    0.487859
   9 C     6.0000    0    12.011   -8.163391   -0.405395   -0.511248
  10 F     9.0000    0    18.998    6.069021   -3.197512    0.779956
  11 F     9.0000    0    18.998    7.069582    0.104475    3.193540
  12 F     9.0000    0    18.998    4.016985    3.055437    0.913185
  13 F     9.0000    0    18.998    4.373114    1.114379   -2.751005
  14 F     9.0000    0    18.998    1.811020   -1.671480    2.711934
  15 F     9.0000    0    18.998   -0.941789    2.381557    2.217292
  16 F     9.0000    0    18.998   -0.565170    2.436826   -1.929242
  17 F     9.0000    0    18.998   -3.102534   -2.679989    1.473086
  18 F     9.0000    0    18.998   -3.387110   -1.571102   -2.526306
  19 F     9.0000    0    18.998   -5.515718    3.173280   -0.557793
  20 F     9.0000    0    18.998   -5.895513    1.084287    3.020878
  21 F     9.0000    0    18.998   -8.282888   -2.842862    0.168427
  22 F     9.0000    0    18.998  -10.139646    0.813581    0.492074
  23 F     9.0000    0    18.998   -8.307275   -0.242925   -3.029121

--------------------------------
INTERNAL COORDINATES (ANGSTROEM)
--------------------------------
 C      0   0   0     0.000000000000     0.00000000     0.00000000
 O      1   0   0     1.393990356793     0.00000000     0.00000000
 O      1   2   0     1.385486802956   136.13177198     0.00000000
 C      1   2   3     1.600608594862   111.52489317   181.18992567
 C      4   1   2     1.559863783763   113.16872737   228.91614990
 C      5   4   1     1.564732561934   113.58394786   148.64287440
 C      6   5   4     1.566675459667   113.91280616   163.93256239
 C      7   6   5     1.568817348692   113.20226571   162.98152714
 C      8   7   6     1.565717094808   113.22984595   162.36375422
 C      9   8   7     1.563173062643   114.14707705   162.41661495
 F      4   1   2     1.385592665621   111.82651119   350.11101305
 F      4   1   2     1.391490625050   110.20991618   108.63170802
 F      5   4   1     1.357041377479   110.29260564   270.15468021
 F      5   4   1     1.361428031433   108.58179722    28.57841973
 F      6   5   4     1.355556277776   108.59004089    43.81583148
 F      7   6   5     1.354739297058   108.88346185   283.65347401
 F      7   6   5     1.353957667090   109.15230848    42.38718856
 F      8   7   6     1.353771473879   109.25240264    41.79387651
 F      8   7   6     1.354368423305   108.69554158   283.25540020
 F      9   8   7     1.355028009646   109.45719767    41.95842364
 F      9   8   7     1.351425618925   109.05210362   282.91820052
 F     10   9   8     1.340551089588   110.79953142    50.02756898
 F     10   9   8     1.338530275591   108.63493714   169.35523750
 F     10   9   8     1.337341214598   110.96044107   288.72891896

---------------------------
INTERNAL COORDINATES (A.U.)
---------------------------
 C      0   0   0     0.000000000000     0.00000000     0.00000000
 O      1   0   0     2.634260007667     0.00000000     0.00000000
 O      1   2   0     2.618190619750   136.13177198     0.00000000
 C      1   2   3     3.024711891890   111.52489317   181.18992567
 C      4   1   2     2.947715357535   113.16872737   228.91614990
 C      5   4   1     2.956916014884   113.58394786   148.64287440
 C      6   5   4     2.960587559506   113.91280616   163.93256239
 C      7   6   5     2.964635143173   113.20226571   162.98152714
 C      8   7   6     2.958776512386   113.22984595   162.36375422
 C      9   8   7     2.953968988318   114.14707705   162.41661495
 F      4   1   2     2.618390671194   111.82651119   350.11101305
 F      4   1   2     2.629536199263   110.20991618   108.63170802
 F      5   4   1     2.564436555835   110.29260564   270.15468021
 F      5   4   1     2.572726130452   108.58179722    28.57841973
 F      6   5   4     2.561630124115   108.59004089    43.81583148
 F      7   6   5     2.560086254300   108.88346185   283.65347401
 F      7   6   5     2.558609187723   109.15230848    42.38718856
 F      8   7   6     2.558257333546   109.25240264    41.79387651
 F      8   7   6     2.559385404477   108.69554158   283.25540020
 F      9   8   7     2.560631842023   109.45719767    41.95842364
 F      9   8   7     2.553824310132   109.05210362   282.91820052
 F     10   9   8     2.533274427850   110.79953142    50.02756898
 F     10   9   8     2.529455642830   108.63493714   169.35523750
 F     10   9   8     2.527208643196   110.96044107   288.72891896

---------------------
BASIS SET INFORMATION
---------------------
There are 3 groups of distinct atoms

 Group   1 Type C   : 11s6p2d1f contracted to 5s3p2d1f pattern {62111/411/11/1}
 Group   2 Type O   : 11s6p2d1f contracted to 5s3p2d1f pattern {62111/411/11/1}
 Group   3 Type F   : 11s6p2d1f contracted to 5s3p2d1f pattern {62111/411/11/1}

Atom   0C    basis set group =>   1
Atom   1O    basis set group =>   2
Atom   2O    basis set group =>   2
Atom   3C    basis set group =>   1
Atom   4C    basis set group =>   1
Atom   5C    basis set group =>   1
Atom   6C    basis set group =>   1
Atom   7C    basis set group =>   1
Atom   8C    basis set group =>   1
Atom   9C    basis set group =>   1
Atom  10F    basis set group =>   3
Atom  11F    basis set group =>   3
Atom  12F    basis set group =>   3
Atom  13F    basis set group =>   3
Atom  14F    basis set group =>   3
Atom  15F    basis set group =>   3
Atom  16F    basis set group =>   3
Atom  17F    basis set group =>   3
Atom  18F    basis set group =>   3
Atom  19F    basis set group =>   3
Atom  20F    basis set group =>   3
Atom  21F    basis set group =>   3
Atom  22F    basis set group =>   3
Atom  23F    basis set group =>   3
---------------------------------
AUXILIARY/J BASIS SET INFORMATION
---------------------------------
There are 3 groups of distinct atoms

 Group   1 Type C   : 12s5p4d2f1g contracted to 6s4p3d1f1g pattern {711111/2111/211/2/1}
 Group   2 Type O   : 12s5p4d2f1g contracted to 6s4p3d1f1g pattern {711111/2111/211/2/1}
 Group   3 Type F   : 12s5p4d2f1g contracted to 6s4p3d1f1g pattern {711111/2111/211/2/1}

Atom   0C    basis set group =>   1
Atom   1O    basis set group =>   2
Atom   2O    basis set group =>   2
Atom   3C    basis set group =>   1
Atom   4C    basis set group =>   1
Atom   5C    basis set group =>   1
Atom   6C    basis set group =>   1
Atom   7C    basis set group =>   1
Atom   8C    basis set group =>   1
Atom   9C    basis set group =>   1
Atom  10F    basis set group =>   3
Atom  11F    basis set group =>   3
Atom  12F    basis set group =>   3
Atom  13F    basis set group =>   3
Atom  14F    basis set group =>   3
Atom  15F    basis set group =>   3
Atom  16F    basis set group =>   3
Atom  17F    basis set group =>   3
Atom  18F    basis set group =>   3
Atom  19F    basis set group =>   3
Atom  20F    basis set group =>   3
Atom  21F    basis set group =>   3
Atom  22F    basis set group =>   3
Atom  23F    basis set group =>   3


           ************************************************************
           *        Program running with 20 parallel MPI-processes    *
           *              working on a common directory               *
           ************************************************************
------------------------------------------------------------------------------
                             ORCA STARTUP CALCULATIONS
                           -- RI-GTO INTEGRALS CHOSEN --
------------------------------------------------------------------------------
------------------------------------------------------------------------------
                   ___                                                        
                  /   \      - P O W E R E D   B Y -                         
                 /     \                                                     
                 |  |  |   _    _      __       _____    __    __             
                 |  |  |  | |  | |    /  \     |  _  \  |  |  /  |          
                  \  \/   | |  | |   /    \    | | | |  |  | /  /          
                 / \  \   | |__| |  /  /\  \   | |_| |  |  |/  /          
                |  |  |   |  __  | /  /__\  \  |    /   |      \           
                |  |  |   | |  | | |   __   |  |    \   |  |\   \          
                \     /   | |  | | |  |  |  |  | |\  \  |  | \   \       
                 \___/    |_|  |_| |__|  |__|  |_| \__\ |__|  \__/        
                                                                              
                      - O R C A' S   B I G   F R I E N D -                    
                                      &                                       
                       - I N T E G R A L  F E E D E R -                       
                                                                              
 v1 FN, 2020, v2 2021, v3 2022-2024                                           
------------------------------------------------------------------------------


----------------------
SHARK INTEGRAL PACKAGE
----------------------

Number of atoms                             ...     24
Number of basis functions                   ...    744
Number of shells                            ...    264
Maximum angular momentum                    ...      3
Integral batch strategy                     ... SHARK/LIBINT Hybrid
RI-J (if used) integral strategy            ... SPLIT-RIJ (Revised 2003 algorithm where possible)
Printlevel                                  ...      1
Contraction scheme used                     ... SEGMENTED contraction
Prescreening option                         ... SCHWARTZ
   Thresh                                   ... 2.500e-11
   Tcut                                     ... 2.500e-12
   Tpresel                                  ... 2.500e-12 
Coulomb Range Separation                    ... NOT USED
Exchange Range Separation                   ... NOT USED
Multipole approximations                    ... NOT USED
Finite Nucleus Model                        ... NOT USED
CABS basis                                  ... NOT available
Auxiliary Coulomb fitting basis             ... AVAILABLE
   # of basis functions in Aux-J            ...   1176
   # of shells in Aux-J                     ...    360
   Maximum angular momentum in Aux-J        ...      4
Auxiliary J/K fitting basis                 ... NOT available
Auxiliary Correlation fitting basis         ... NOT available
Auxiliary 'external' fitting basis          ... NOT available

Checking pre-screening integrals            ... done (  0.0 sec) Dimension = 264
Check shell pair data                       ... done (  0.0 sec)
Shell pair information
Shell pair cut-off parameter TPreSel        ...   2.5e-12
Total number of shell pairs                 ...     34980
Shell pairs after pre-screening             ...     21379
Total number of primitive shell pairs       ...    115968
Primitive shell pairs kept                  ...     45535
          la=0 lb=0:   3992 shell pairs
          la=1 lb=0:   5808 shell pairs
          la=1 lb=1:   2038 shell pairs
          la=2 lb=0:   3180 shell pairs
          la=2 lb=1:   2358 shell pairs
          la=2 lb=2:    668 shell pairs
          la=3 lb=0:   1442 shell pairs
          la=3 lb=1:   1133 shell pairs
          la=3 lb=2:    613 shell pairs
          la=3 lb=3:    147 shell pairs

Calculating one electron integrals          ... done (  0.0 sec)
Calculating RI/J V-Matrix + Cholesky decomp.... done (  0.1 sec)
Calculating Nuclear repulsion               ... done (  0.0 sec) ENN=   2589.580242709824 Eh

Diagonalization of the overlap matrix:
Smallest eigenvalue                        ... 6.676e-05
Time for diagonalization                   ...    0.115 sec
Threshold for overlap eigenvalues          ... 1.000e-07
Number of eigenvalues below threshold      ... 0
Time for construction of square roots      ...    0.052 sec
Total time needed                          ...    0.173 sec

-------------------
DFT GRID GENERATION
-------------------

General Integration Accuracy     IntAcc      ... 4.388
Radial Grid Type                 RadialGrid  ... OptM3 with GC (2021)
Angular Grid (max. ang.)         AngularGrid ... 4 (Lebedev-302)
Angular grid pruning method      GridPruning ... 4 (adaptive)
Weight generation scheme         WeightScheme... mBecke (2022)
Basis function cutoff            BFCut       ... 1.0000e-11
Integration weight cutoff        WCut        ... 1.0000e-14
Partially contracted basis set               ... off
Rotationally invariant grid construction     ... off
Angular grids for H and He will be reduced by one unit

Total number of grid points                  ...   145515
Total number of batches                      ...     2285
Average number of points per batch           ...       63
Average number of grid points per atom       ...     6063

--------------------
COSX GRID GENERATION
--------------------

GRIDX 1
-------
General Integration Accuracy     IntAcc      ... 3.816
Radial Grid Type                 RadialGrid  ... OptM3 with GC (2021)
Angular Grid (max. ang.)         AngularGrid ... 1 (Lebedev-50)
Angular grid pruning method      GridPruning ... 4 (adaptive)
Weight generation scheme         WeightScheme... mBecke (2022)
Basis function cutoff            BFCut       ... 1.0000e-11
Integration weight cutoff        WCut        ... 1.0000e-14
Partially contracted basis set               ... on
Rotationally invariant grid construction     ... off
Angular grids for H and He will be reduced by one unit

Total number of grid points                  ...    18283
Total number of batches                      ...      153
Average number of points per batch           ...      119
Average number of grid points per atom       ...      762
UseSFitting                                  ... on

GRIDX 2
-------
General Integration Accuracy     IntAcc      ... 4.020
Radial Grid Type                 RadialGrid  ... OptM3 with GC (2021)
Angular Grid (max. ang.)         AngularGrid ... 2 (Lebedev-110)
Angular grid pruning method      GridPruning ... 4 (adaptive)
Weight generation scheme         WeightScheme... mBecke (2022)
Basis function cutoff            BFCut       ... 1.0000e-11
Integration weight cutoff        WCut        ... 1.0000e-14
Partially contracted basis set               ... on
Rotationally invariant grid construction     ... off
Angular grids for H and He will be reduced by one unit

Total number of grid points                  ...    43391
Total number of batches                      ...      353
Average number of points per batch           ...      122
Average number of grid points per atom       ...     1808
UseSFitting                                  ... on

GRIDX 3
-------
General Integration Accuracy     IntAcc      ... 4.338
Radial Grid Type                 RadialGrid  ... OptM3 with GC (2021)
Angular Grid (max. ang.)         AngularGrid ... 3 (Lebedev-194)
Angular grid pruning method      GridPruning ... 4 (adaptive)
Weight generation scheme         WeightScheme... mBecke (2022)
Basis function cutoff            BFCut       ... 1.0000e-11
Integration weight cutoff        WCut        ... 1.0000e-14
Partially contracted basis set               ... on
Rotationally invariant grid construction     ... off
Angular grids for H and He will be reduced by one unit

Total number of grid points                  ...    96141
Total number of batches                      ...      758
Average number of points per batch           ...      126
Average number of grid points per atom       ...     4006
UseSFitting                                  ... on
Initializing property integral containers    ... done (  0.0 sec)

SHARK setup successfully completed in   4.0 seconds

Maximum memory used throughout the entire STARTUP-calculation: 56.3 MB


           ************************************************************
           *        Program running with 20 parallel MPI-processes    *
           *              working on a common directory               *
           ************************************************************
-------------------------------------------------------------------------------
                                 ORCA GUESS
                   Start orbitals & Density for SCF / CASSCF
-------------------------------------------------------------------------------

------------
SCF SETTINGS
------------
Hamiltonian:
 Density Functional     Method          .... DFT(GTOs)
  Functional kind                       .... Exchange
  Functional name                       .... Re-regularized SCAN exchange by Furness et al
  Functional family                     .... MGGA
  Functional refs                              
    [ 0] J. W. Furness, A. D. Kaplan, J. Ning, J. P. Perdew, and J. Sun.,  J. Phys. Chem. Lett. 11, 8208-8215 (2020), doi: 10.1021/acs.jpclett.0c02405
    [ 1] J. W. Furness, A. D. Kaplan, J. Ning, J. P. Perdew, and J. Sun.,  J. Phys. Chem. Lett. 11, 9248-9248 (2020), doi: 10.1021/acs.jpclett.0c03077
  Functional external parameters        .... 6
    Parameter  0 _c1        =  6.670000e-01 : c1 parameter        
    Parameter  1 _c2        =  8.000000e-01 : c2 parameter        
    Parameter  2 _d         =  1.240000e+00 : d parameter         
    Parameter  3 _k1        =  6.500000e-02 : k1 parameter        
    Parameter  4 _eta       =  1.000000e-03 : eta parameter       
    Parameter  5 _dp2       =  3.610000e-01 : dp2 parameter       
  Functional kind                       .... Correlation
  Functional name                       .... Re-regularized SCAN correlation by Furness et al
  Functional family                     .... MGGA
  Functional refs                              
    [ 0] J. W. Furness, A. D. Kaplan, J. Ning, J. P. Perdew, and J. Sun.,  J. Phys. Chem. Lett. 11, 8208-8215 (2020), doi: 10.1021/acs.jpclett.0c02405
    [ 1] J. W. Furness, A. D. Kaplan, J. Ning, J. P. Perdew, and J. Sun.,  J. Phys. Chem. Lett. 11, 9248-9248 (2020), doi: 10.1021/acs.jpclett.0c03077
  Functional external parameters        .... 1
    Parameter  0 _eta       =  1.000000e-03 : Regularization parameter
 Gradients option       PostSCFGGA      .... off
 Hybrid DFT is turned on
   Fraction HF Exchange ScalHFX         ....  0.100000
   Scaling of DF-GGA-X  ScalDFX         ....  0.900000
   Scaling of DF-GGA-C  ScalDFC         ....  1.000000
   Scaling of DF-LDA-C  ScalLDAC        ....  1.000000
   Perturbative correction              ....  0.000000
   NL short-range parameter             .... 11.900000
 RI-approximation to the Coulomb term is turned on
   Number of AuxJ basis functions       .... 1176
   RIJ-COSX (HFX calculated with COS-X)).... on


General Settings:
 Integral files         IntName         .... rf_mecn_opt_r2s_C4_D_B
 Hartree-Fock type      HFTyp           .... UHF
 Total Charge           Charge          ....   -1
 Multiplicity           Mult            ....    2
 Number of Electrons    NEL             ....  191
 Basis Dimension        Dim             ....  744
 Nuclear Repulsion      ENuc            ....   2589.5802427098 Eh

Convergence Acceleration:
 AO-DIIS                CNVDIIS         .... on
   Start iteration      DIISMaxIt       ....     0
   Startup error        DIISStart       ....  0.200000
   # of expansion vecs  DIISMaxEq       ....     5
   Bias factor          DIISBfac        ....   1.050
   Max. coefficient     DIISMaxC        ....  10.000
 MO-DIIS                CNVKDIIS        .... off
 Trust-Rad. Augm. Hess. CNVTRAH         .... auto
   Auto Start mean grad. ratio tolernc. ....  1.125000
   Auto Start start iteration           ....    50
   Auto Start num. interpolation iter.  ....    10
   Max. Number of Micro iterations      ....    24
   Max. Number of Macro iterations      .... Maxiter - #DIIS iter
   Number of Davidson start vectors     ....     2
   Converg. threshold    (grad. norm)   ....   1.000e-05
   Grad. Scal. Fac. for Micro threshold ....   0.100
   Minimum threshold for Micro iter.    ....   1.000e-02
   NR start threshold (gradient norm)   ....   1.000e-04
   Initial trust radius                 ....   0.400
   Minimum AH scaling param. (alpha)    ....   1.000
   Maximum AH scaling param. (alpha)    .... 1000.000
   Quad. conv. algorithm                .... NR
   White noise on init. David. guess    .... on
   Maximum white noise                  ....   0.010
   Pseudo random numbers                .... off
   Inactive MOs                         .... canonical
   Orbital update algorithm             .... Taylor
   Preconditioner                       .... Diag
   Full preconditioner red. dimension   ....   250
 SOSCF                  CNVSOSCF        .... on
   Start iteration      SOSCFMaxIt      ....   150
   Startup grad/error   SOSCFStart      ....  0.001000
   Hessian update       SOSCFHessUp     .... L-BFGS
 Level Shifting         CNVShift        .... on
   Level shift para.    LevelShift      ....    0.2500
   Turn off err/grad.   ShiftErr        ....    0.0000
 Zerner damping         CNVZerner       .... off
 Static damping         CNVDamp         .... on
   Fraction old density DampFac         ....    0.8500
   Max. Damping (<1)    DampMax         ....    0.9800
   Min. Damping (>=0)   DampMin         ....    0.0000
   Turn off err/grad.   DampErr         ....    0.0300

SCF Procedure:
 Maximum # iterations   MaxIter         ....  1500
 SCF integral mode      SCFMode         .... Direct
   Integral package                     .... SHARK and LIBINT hybrid scheme
 Reset frequency        DirectResetFreq ....    20
 Integral Threshold     Thresh          ....  2.500e-11 Eh
 Primitive CutOff       TCut            ....  2.500e-12 Eh

Convergence Tolerance:
 Convergence Check Mode ConvCheckMode   .... Total+1el-Energy
 Convergence forced     ConvForced      .... 0
 Energy Change          TolE            ....  1.000e-08 Eh
 1-El. energy change                    ....  1.000e-05 Eh
 Orbital Gradient       TolG            ....  1.000e-05
 Orbital Rotation angle TolX            ....  1.000e-05
 DIIS Error             TolErr          ....  5.000e-07

------------------------------
INITIAL GUESS: MODEL POTENTIAL
------------------------------
Loading Hartree-Fock densities                     ... done
Calculating cut-offs                               ... done
Initializing the effective Hamiltonian             ... done
Setting up the integral package (SHARK)            ... done
Starting the Coulomb interaction                   ... done (   0.2 sec)
Making the grid                                    ... done (   0.5 sec)
Mapping shells                                     ... done
Starting the XC term evaluation                    ... done (   0.2 sec)
  promolecular density results
     # of electrons  =    190.000210576
     EX              =   -197.018144900
     EC              =     -6.647580427
     EX+EC           =   -203.665725327
Transforming the Hamiltonian                       ... done (   0.1 sec)
Diagonalizing the Hamiltonian                      ... done (   0.1 sec)
Back transforming the eigenvectors                 ... done (   0.0 sec)
Now organizing SCF variables                       ... done
                      ------------------
                      INITIAL GUESS DONE (   1.2 sec)
                      ------------------
             **** ENERGY FILE WAS UPDATED (rf_mecn_opt_r2s_C4_D_B.en.tmp) ****
Finished Guess after   2.0 sec
Maximum memory used throughout the entire GUESS-calculation: 44.7 MB


           ************************************************************
           *        Program running with 20 parallel MPI-processes    *
           *              working on a common directory               *
           ************************************************************

-------------------------------------------------------------------------------------------
                                      ORCA LEAN-SCF
                              memory conserving SCF solver
-------------------------------------------------------------------------------------------

--------------------
CPCM SOLVATION MODEL
--------------------
CPCM parameters:
  Epsilon                                         ...      35.6880
  Refrac                                          ...       1.3442
  Rsolv                                           ...       1.3000
  Surface type                                    ... GAUSSIAN VDW
  Discretization scheme                           ... Constant charge density
    Threshold for H atoms                         ...       5.0000 (charges/Ang^2)
    Threshold for non-H atoms                     ...       5.0000 (charges/Ang^2)
  Epsilon function type                           ...         CPCM
Solvent:                                          ... ACETONITRILE
SMD-CDS solvent descriptors:
  Soln                                            ...       1.3442
  Soln25                                          ...       1.3416
  Sola                                            ...       0.0700
  Solb                                            ...       0.3200
  Solg                                            ...      41.2500
  Solc                                            ...       0.0000
  Solh                                            ...       0.0000
Radii:
  Scheme                                          ... Element-dependent radii
  Radius for C  used is    3.4960 Bohr (=   1.8500 Ang.)
  Radius for O  used is    4.0969 Bohr (=   2.1680 Ang.)
  Radius for F  used is    3.2692 Bohr (=   1.7300 Ang.)
Calculating surface                               ...        done! (  0.0s)
Cavity surface points                             ...         2140
Cavity Volume                                     ...    2135.6335
Cavity Surface-area                               ...    1121.9393
Calculating surface distance matrix               ...        done! (  0.0s)
Performing Cholesky decomposition & store         ...        done! (  0.1s)
Overall time for CPCM initialization              ...                 0.2s

----------------------------------------D-I-I-S--------------------------------------------
Iteration    Energy (Eh)           Delta-E    RMSDP     MaxDP     DIISErr   Damp  Time(sec)
-------------------------------------------------------------------------------------------
               ***  Starting incremental Fock matrix formation  ***
    1    -1852.5853786216011940     0.00e+00  2.62e-04  3.46e-02  1.57e-01  0.850   7.7
Warning: op=0 Small HOMO/LUMO gap (   0.062) - skipping pre-diagonalization
         Will do a full diagonalization
    2    -1852.7319908396202663    -1.47e-01  3.26e-04  6.58e-02  1.05e-01  0.850   5.3
                               ***Turning on AO-DIIS***
    3    -1852.8079844885360217    -7.60e-02  1.54e-04  2.78e-02  6.07e-02  0.850   4.5
    4    -1852.8530790302665991    -4.51e-02  8.17e-05  9.03e-03  4.45e-02  0.850   4.4
    5    -1852.8850937348770458    -3.20e-02  5.54e-05  3.77e-03  3.71e-02  0.850   4.3
    6    -1852.9105021407358436    -2.54e-02  4.55e-05  3.60e-03  3.23e-02  0.850   4.3
    7    -1852.9317596293658426    -2.13e-02  4.08e-05  3.26e-03  2.78e-02  0.850   4.2
    8    -1852.9498978587807869    -1.81e-02  2.41e-04  1.94e-02  2.32e-02  0.000   4.0
    9    -1853.0456129318326930    -9.57e-02  2.66e-05  2.27e-03  4.72e-03  0.000   4.6
   10    -1853.0458470097346435    -2.34e-04  1.12e-05  1.60e-03  3.13e-03  0.000   3.9
                              *** Initializing SOSCF ***
---------------------------------------S-O-S-C-F--------------------------------------
Iteration    Energy (Eh)           Delta-E    RMSDP     MaxDP     MaxGrad    Time(sec)
--------------------------------------------------------------------------------------
   11    -1853.0459432022844339    -9.62e-05  6.43e-06  1.04e-03  4.68e-04     4.5
               *** Restarting incremental Fock matrix formation ***
   12    -1853.0459638705342513    -2.07e-05  7.57e-06  1.05e-03  3.70e-04     7.2
   13    -1853.0459674991634529    -3.63e-06  5.30e-06  5.64e-04  5.95e-04     5.1
   14    -1853.0459700636411071    -2.56e-06  2.87e-06  2.60e-04  2.57e-04     5.2
   15    -1853.0459711359080757    -1.07e-06  1.38e-06  2.52e-04  4.12e-05     4.7
   16    -1853.0459712311303520    -9.52e-08  6.53e-07  6.19e-05  3.22e-05     4.4
   17    -1853.0459712948195374    -6.37e-08  4.88e-07  6.92e-05  3.76e-05     4.0
   18    -1853.0459712801985006     1.46e-08  2.84e-07  2.08e-05  6.06e-05     3.8
   19    -1853.0459713437385290    -6.35e-08  3.67e-07  6.93e-05  1.05e-05     3.8
   20    -1853.0459713173067939     2.64e-08  1.91e-07  3.76e-05  8.42e-06     3.7
   21    -1853.0459713369373276    -1.96e-08  7.83e-08  7.74e-06  4.28e-07     3.4
                  *** Gradient check signals convergence ***

               *****************************************************
               *                     SUCCESS                       *
               *           SCF CONVERGED AFTER  21 CYCLES          *
               *****************************************************

Recomputing exchange energy using gridx3       ... done (    8.397 sec)
Old exchange energy                            :    -19.873465227 Eh
New exchange energy                            :    -19.873476977 Eh
Exchange energy change after final integration :     -0.000011750 Eh
Total energy after final integration           :  -1853.045983087 Eh

SMD CDS free energy correction energy :                 3.60969     Kcal/mol
Total Energy after SMD CDS correction =             -1853.040230679 Eh
             **** ENERGY FILE WAS UPDATED (rf_mecn_opt_r2s_C4_D_B.en.tmp) ****

----------------
TOTAL SCF ENERGY
----------------

Total Energy       :      -1853.04023067874800 Eh          -50423.78817 eV

Components:
Nuclear Repulsion  :       2589.58024270982423 Eh           70466.06083 eV
Electronic Energy  :      -4442.54231657048331 Eh         -120887.72225 eV
One Electron Energy:      -7753.38444488777168 Eh         -210980.31678 eV
Two Electron Energy:       3310.84212831728792 Eh           90092.59453 eV
CPCM Dielectric    :         -0.08389747627745 Eh              -2.28297 eV
SMD CDS (Gcds)     :          0.00575240829477 Eh               0.15653 eV

Virial components:
Potential Energy   :      -3698.51364265847315 Eh         -100641.67274 eV
Kinetic Energy     :       1845.47341197972537 Eh           50217.88457 eV
Virial Ratio       :          2.00410020466830

DFT components:
N(Alpha)           :       95.999971260144 electrons
N(Beta)            :       94.999969628413 electrons
N(Total)           :      190.999940888556 electrons
E(X)               :     -179.873901634884 Eh       
E(C)               :       -6.627322698878 Eh       
E(XC)              :     -186.501224333762 Eh       

CPCM Solvation Model Properties:
Surface-charge          :          0.99027711669338
Corrected charge        :          1.00000000000000
Outlying charge corr.   :          0.00000513621362 Eh               0.00014 eV
Free-energy (cav+disp)  :          0.00575240829477 Eh               0.15653 eV

---------------
SCF CONVERGENCE
---------------

  Last Energy change         ...    1.9631e-08  Tolerance :   1.0000e-08
  Last MAX-Density change    ...    7.7448e-06  Tolerance :   1.0000e-07
  Last RMS-Density change    ...    7.8282e-08  Tolerance :   5.0000e-09
  Last DIIS Error            ...    4.6764e-04  Tolerance :   5.0000e-07
  Last Orbital Gradient      ...    4.2824e-07  Tolerance :   1.0000e-05
  Last Orbital Rotation      ...    1.0577e-06  Tolerance :   1.0000e-05


----------------------
UHF SPIN CONTAMINATION
----------------------

Warning: in a DFT calculation there is little theoretical justification to 
         calculate <S**2> as in Hartree-Fock theory. We will do it anyways
         but you should keep in mind that the values have only limited relevance

Expectation value of <S**2>     :     0.755206
Ideal value S*(S+1) for S=0.5   :     0.750000
Deviation                       :     0.005206

----------------
ORBITAL ENERGIES
----------------
                 SPIN UP ORBITALS
  NO   OCC          E(Eh)            E(eV) 
   0   1.0000     -24.732360      -673.0017 
   1   1.0000     -24.731374      -672.9749 
   2   1.0000     -24.730696      -672.9565 
   3   1.0000     -24.730626      -672.9545 
   4   1.0000     -24.730072      -672.9395 
   5   1.0000     -24.729671      -672.9286 
   6   1.0000     -24.729140      -672.9141 
   7   1.0000     -24.725768      -672.8224 
   8   1.0000     -24.725356      -672.8111 
   9   1.0000     -24.723510      -672.7609 
  10   1.0000     -24.711448      -672.4327 
  11   1.0000     -24.703252      -672.2097 
  12   1.0000     -24.690664      -671.8671 
  13   1.0000     -24.688506      -671.8084 
  14   1.0000     -19.075201      -519.0626 
  15   1.0000     -19.073385      -519.0132 
  16   1.0000     -10.443583      -284.1843 
  17   1.0000     -10.388728      -282.6917 
  18   1.0000     -10.387247      -282.6514 
  19   1.0000     -10.385651      -282.6079 
  20   1.0000     -10.365876      -282.0698 
  21   1.0000     -10.341970      -281.4193 
  22   1.0000     -10.316494      -280.7261 
  23   1.0000     -10.277443      -279.6635 
  24   1.0000      -1.354080       -36.8464 
  25   1.0000      -1.326074       -36.0843 
  26   1.0000      -1.310010       -35.6472 
  27   1.0000      -1.305945       -35.5366 
  28   1.0000      -1.293957       -35.2104 
  29   1.0000      -1.275192       -34.6997 
  30   1.0000      -1.267970       -34.5032 
  31   1.0000      -1.262869       -34.3644 
  32   1.0000      -1.259762       -34.2799 
  33   1.0000      -1.258675       -34.2503 
  34   1.0000      -1.252751       -34.0891 
  35   1.0000      -1.249246       -33.9937 
  36   1.0000      -1.234152       -33.5830 
  37   1.0000      -1.207244       -32.8508 
  38   1.0000      -0.962976       -26.2039 
  39   1.0000      -0.903311       -24.5804 
  40   1.0000      -0.841445       -22.8969 
  41   1.0000      -0.820152       -22.3175 
  42   1.0000      -0.785518       -21.3750 
  43   1.0000      -0.748575       -20.3698 
  44   1.0000      -0.703751       -19.1500 
  45   1.0000      -0.676638       -18.4122 
  46   1.0000      -0.651622       -17.7315 
  47   1.0000      -0.632538       -17.2122 
  48   1.0000      -0.630300       -17.1513 
  49   1.0000      -0.624205       -16.9855 
  50   1.0000      -0.608450       -16.5568 
  51   1.0000      -0.604726       -16.4554 
  52   1.0000      -0.602128       -16.3847 
  53   1.0000      -0.591382       -16.0923 
  54   1.0000      -0.586810       -15.9679 
  55   1.0000      -0.580760       -15.8033 
  56   1.0000      -0.575522       -15.6607 
  57   1.0000      -0.566691       -15.4205 
  58   1.0000      -0.556569       -15.1450 
  59   1.0000      -0.547839       -14.9075 
  60   1.0000      -0.537868       -14.6361 
  61   1.0000      -0.504554       -13.7296 
  62   1.0000      -0.498919       -13.5763 
  63   1.0000      -0.492435       -13.3998 
  64   1.0000      -0.488954       -13.3051 
  65   1.0000      -0.483812       -13.1652 
  66   1.0000      -0.482821       -13.1382 
  67   1.0000      -0.474390       -12.9088 
  68   1.0000      -0.470443       -12.8014 
  69   1.0000      -0.463546       -12.6137 
  70   1.0000      -0.461177       -12.5493 
  71   1.0000      -0.455783       -12.4025 
  72   1.0000      -0.449476       -12.2309 
  73   1.0000      -0.448367       -12.2007 
  74   1.0000      -0.447581       -12.1793 
  75   1.0000      -0.444373       -12.0920 
  76   1.0000      -0.439025       -11.9465 
  77   1.0000      -0.437111       -11.8944 
  78   1.0000      -0.435007       -11.8371 
  79   1.0000      -0.430679       -11.7194 
  80   1.0000      -0.427865       -11.6428 
  81   1.0000      -0.426269       -11.5994 
  82   1.0000      -0.423779       -11.5316 
  83   1.0000      -0.416589       -11.3360 
  84   1.0000      -0.409969       -11.1558 
  85   1.0000      -0.400162       -10.8890 
  86   1.0000      -0.399392       -10.8680 
  87   1.0000      -0.384097       -10.4518 
  88   1.0000      -0.376916       -10.2564 
  89   1.0000      -0.356164        -9.6917 
  90   1.0000      -0.337830        -9.1928 
  91   1.0000      -0.329055        -8.9540 
  92   1.0000      -0.290478        -7.9043 
  93   1.0000      -0.240351        -6.5403 
  94   1.0000      -0.232442        -6.3251 
  95   1.0000      -0.229034        -6.2323 
  96   0.0000      -0.031757        -0.8641 
  97   0.0000      -0.008101        -0.2204 
  98   0.0000       0.004859         0.1322 
  99   0.0000       0.032118         0.8740 
 100   0.0000       0.055043         1.4978 
 101   0.0000       0.077990         2.1222 
 102   0.0000       0.094635         2.5751 
 103   0.0000       0.106529         2.8988 
 104   0.0000       0.109837         2.9888 
 105   0.0000       0.122096         3.3224 
 106   0.0000       0.133203         3.6246 

                 SPIN DOWN ORBITALS
  NO   OCC          E(Eh)            E(eV) 
   0   1.0000     -24.732360      -673.0017 
   1   1.0000     -24.731374      -672.9749 
   2   1.0000     -24.730695      -672.9564 
   3   1.0000     -24.730625      -672.9545 
   4   1.0000     -24.730049      -672.9388 
   5   1.0000     -24.729669      -672.9285 
   6   1.0000     -24.729108      -672.9132 
   7   1.0000     -24.724484      -672.7874 
   8   1.0000     -24.723503      -672.7607 
   9   1.0000     -24.720712      -672.6848 
  10   1.0000     -24.709772      -672.3871 
  11   1.0000     -24.703241      -672.2094 
  12   1.0000     -24.690668      -671.8672 
  13   1.0000     -24.688343      -671.8040 
  14   1.0000     -19.075179      -519.0620 
  15   1.0000     -19.073403      -519.0137 
  16   1.0000     -10.443584      -284.1844 
  17   1.0000     -10.388743      -282.6921 
  18   1.0000     -10.387195      -282.6499 
  19   1.0000     -10.385586      -282.6062 
  20   1.0000     -10.365863      -282.0695 
  21   1.0000     -10.342023      -281.4208 
  22   1.0000     -10.298847      -280.2459 
  23   1.0000     -10.277449      -279.6636 
  24   1.0000      -1.354076       -36.8463 
  25   1.0000      -1.325586       -36.0710 
  26   1.0000      -1.309312       -35.6282 
  27   1.0000      -1.305207       -35.5165 
  28   1.0000      -1.292153       -35.1613 
  29   1.0000      -1.269348       -34.5407 
  30   1.0000      -1.267003       -34.4769 
  31   1.0000      -1.262861       -34.3642 
  32   1.0000      -1.259522       -34.2733 
  33   1.0000      -1.257612       -34.2214 
  34   1.0000      -1.252391       -34.0793 
  35   1.0000      -1.248186       -33.9649 
  36   1.0000      -1.232705       -33.5436 
  37   1.0000      -1.207043       -32.8453 
  38   1.0000      -0.962974       -26.2038 
  39   1.0000      -0.903312       -24.5804 
  40   1.0000      -0.838446       -22.8153 
  41   1.0000      -0.808610       -22.0034 
  42   1.0000      -0.784402       -21.3447 
  43   1.0000      -0.742387       -20.2014 
  44   1.0000      -0.700573       -19.0636 
  45   1.0000      -0.675662       -18.3857 
  46   1.0000      -0.646917       -17.6035 
  47   1.0000      -0.631139       -17.1742 
  48   1.0000      -0.629379       -17.1263 
  49   1.0000      -0.623960       -16.9788 
  50   1.0000      -0.606723       -16.5098 
  51   1.0000      -0.603475       -16.4214 
  52   1.0000      -0.600632       -16.3440 
  53   1.0000      -0.590633       -16.0719 
  54   1.0000      -0.584185       -15.8965 
  55   1.0000      -0.578311       -15.7367 
  56   1.0000      -0.574222       -15.6254 
  57   1.0000      -0.565863       -15.3979 
  58   1.0000      -0.553296       -15.0560 
  59   1.0000      -0.544023       -14.8036 
  60   1.0000      -0.536710       -14.6046 
  61   1.0000      -0.498738       -13.5713 
  62   1.0000      -0.493011       -13.4155 
  63   1.0000      -0.488958       -13.3052 
  64   1.0000      -0.483483       -13.1562 
  65   1.0000      -0.482494       -13.1293 
  66   1.0000      -0.480730       -13.0813 
  67   1.0000      -0.473084       -12.8733 
  68   1.0000      -0.467733       -12.7277 
  69   1.0000      -0.463060       -12.6005 
  70   1.0000      -0.455786       -12.4026 
  71   1.0000      -0.455413       -12.3924 
  72   1.0000      -0.448595       -12.2069 
  73   1.0000      -0.447571       -12.1790 
  74   1.0000      -0.445232       -12.1154 
  75   1.0000      -0.442317       -12.0361 
  76   1.0000      -0.437092       -11.8939 
  77   1.0000      -0.435030       -11.8378 
  78   1.0000      -0.433287       -11.7903 
  79   1.0000      -0.429625       -11.6907 
  80   1.0000      -0.427064       -11.6210 
  81   1.0000      -0.426119       -11.5953 
  82   1.0000      -0.421778       -11.4772 
  83   1.0000      -0.415808       -11.3147 
  84   1.0000      -0.407940       -11.1006 
  85   1.0000      -0.399701       -10.8764 
  86   1.0000      -0.398216       -10.8360 
  87   1.0000      -0.381938       -10.3930 
  88   1.0000      -0.376699       -10.2505 
  89   1.0000      -0.354627        -9.6499 
  90   1.0000      -0.337785        -9.1916 
  91   1.0000      -0.325018        -8.8442 
  92   1.0000      -0.240354        -6.5404 
  93   1.0000      -0.232432        -6.3248 
  94   1.0000      -0.228947        -6.2300 
  95   0.0000      -0.128394        -3.4938 
  96   0.0000      -0.030955        -0.8423 
  97   0.0000      -0.005502        -0.1497 
  98   0.0000       0.009305         0.2532 
  99   0.0000       0.037390         1.0174 
 100   0.0000       0.063340         1.7236 
 101   0.0000       0.079363         2.1596 
 102   0.0000       0.099875         2.7177 
 103   0.0000       0.107498         2.9252 
 104   0.0000       0.111732         3.0404 
 105   0.0000       0.124413         3.3855 
*Only the first 10 virtual orbitals were printed.

                    ********************************
                    * MULLIKEN POPULATION ANALYSIS *
                    ********************************

--------------------------------------------
MULLIKEN ATOMIC CHARGES AND SPIN POPULATIONS
--------------------------------------------
   0 C :    0.239586   -0.000284
   1 O :   -0.559380   -0.000490
   2 O :   -0.561526    0.000615
   3 C :    0.356475   -0.003909
   4 C :    0.367341    0.002604
   5 C :    0.079490    0.865823
   6 C :    0.391607   -0.003206
   7 C :    0.309920   -0.000225
   8 C :    0.333323    0.000179
   9 C :    0.470666    0.000042
  10 F :   -0.201929    0.001771
  11 F :   -0.214578    0.000020
  12 F :   -0.179329    0.031143
  13 F :   -0.189134   -0.000318
  14 F :   -0.162457    0.080243
  15 F :   -0.167623    0.025024
  16 F :   -0.174367    0.000269
  17 F :   -0.170341    0.000490
  18 F :   -0.172519    0.000201
  19 F :   -0.165745   -0.000034
  20 F :   -0.162407    0.000005
  21 F :   -0.157353    0.000011
  22 F :   -0.154504    0.000016
  23 F :   -0.155216    0.000009
Sum of atomic charges         :   -1.0000000
Sum of atomic spin populations:    1.0000000

-----------------------------------------------------
MULLIKEN REDUCED ORBITAL CHARGES AND SPIN POPULATIONS
-----------------------------------------------------
CHARGE
  0 C s       :     3.148254  s :     3.148254
      pz      :     0.833428  p :     2.403063
      px      :     0.856969
      py      :     0.712665
      dz2     :     0.012552  d :     0.192795
      dxz     :     0.014863
      dyz     :     0.056882
      dx2y2   :     0.050513
      dxy     :     0.057985
      f0      :     0.001647  f :     0.016303
      f+1     :     0.001037
      f-1     :     0.002049
      f+2     :     0.002443
      f-2     :     0.001607
      f+3     :     0.003595
      f-3     :     0.003926

  1 O s       :     3.875255  s :     3.875255
      pz      :     1.594180  p :     4.659825
      px      :     1.637332
      py      :     1.428313
      dz2     :     0.003071  d :     0.023068
      dxz     :     0.001653
      dyz     :     0.005281
      dx2y2   :     0.005468
      dxy     :     0.007594
      f0      :     0.000110  f :     0.001233
      f+1     :     0.000055
      f-1     :     0.000170
      f+2     :     0.000115
      f-2     :     0.000187
      f+3     :     0.000356
      f-3     :     0.000240

  2 O s       :     3.872648  s :     3.872648
      pz      :     1.620434  p :     4.664064
      px      :     1.738605
      py      :     1.305025
      dz2     :     0.003106  d :     0.023559
      dxz     :     0.000323
      dyz     :     0.006063
      dx2y2   :     0.008747
      dxy     :     0.005321
      f0      :     0.000115  f :     0.001255
      f+1     :     0.000016
      f-1     :     0.000222
      f+2     :     0.000211
      f-2     :     0.000032
      f+3     :     0.000285
      f-3     :     0.000374

  3 C s       :     3.110920  s :     3.110920
      pz      :     0.679111  p :     2.264127
      px      :     0.944666
      py      :     0.640351
      dz2     :     0.044865  d :     0.244217
      dxz     :     0.046370
      dyz     :     0.060559
      dx2y2   :     0.042027
      dxy     :     0.050396
      f0      :     0.005146  f :     0.024260
      f+1     :     0.003539
      f-1     :     0.003688
      f+2     :     0.003330
      f-2     :     0.001976
      f+3     :     0.003590
      f-3     :     0.002990

  4 C s       :     3.104921  s :     3.104921
      pz      :     0.605484  p :     2.224603
      px      :     0.931044
      py      :     0.688075
      dz2     :     0.059157  d :     0.276407
      dxz     :     0.058274
      dyz     :     0.065191
      dx2y2   :     0.035466
      dxy     :     0.058319
      f0      :     0.003503  f :     0.026728
      f+1     :     0.004799
      f-1     :     0.007760
      f+2     :     0.002213
      f-2     :     0.002529
      f+3     :     0.003504
      f-3     :     0.002420

  5 C s       :     3.335819  s :     3.335819
      pz      :     0.670996  p :     2.424687
      px      :     0.914429
      py      :     0.839262
      dz2     :     0.035196  d :     0.144821
      dxz     :     0.036567
      dyz     :     0.030444
      dx2y2   :     0.016412
      dxy     :     0.026203
      f0      :     0.003455  f :     0.015184
      f+1     :     0.003900
      f-1     :     0.002402
      f+2     :     0.001345
      f-2     :     0.001629
      f+3     :     0.001306
      f-3     :     0.001148

  6 C s       :     3.109544  s :     3.109544
      pz      :     0.572802  p :     2.181795
      px      :     0.912933
      py      :     0.696061
      dz2     :     0.078785  d :     0.289985
      dxz     :     0.062316
      dyz     :     0.052929
      dx2y2   :     0.036258
      dxy     :     0.059697
      f0      :     0.005912  f :     0.027069
      f+1     :     0.003753
      f-1     :     0.004219
      f+2     :     0.003961
      f-2     :     0.005174
      f+3     :     0.002156
      f-3     :     0.001894

  7 C s       :     3.144979  s :     3.144979
      pz      :     0.582909  p :     2.233278
      px      :     0.940607
      py      :     0.709762
      dz2     :     0.073698  d :     0.284867
      dxz     :     0.060555
      dyz     :     0.060223
      dx2y2   :     0.032910
      dxy     :     0.057482
      f0      :     0.004566  f :     0.026955
      f+1     :     0.004235
      f-1     :     0.006307
      f+2     :     0.002908
      f-2     :     0.004196
      f+3     :     0.002633
      f-3     :     0.002110

  8 C s       :     3.110496  s :     3.110496
      pz      :     0.616449  p :     2.247647
      px      :     0.942181
      py      :     0.689016
      dz2     :     0.058781  d :     0.281450
      dxz     :     0.059439
      dyz     :     0.071667
      dx2y2   :     0.033570
      dxy     :     0.057993
      f0      :     0.003468  f :     0.027084
      f+1     :     0.004892
      f-1     :     0.008095
      f+2     :     0.002098
      f-2     :     0.002365
      f+3     :     0.003747
      f-3     :     0.002419

  9 C s       :     3.031142  s :     3.031142
      pz      :     0.646427  p :     2.108124
      px      :     0.802906
      py      :     0.658791
      dz2     :     0.066583  d :     0.350773
      dxz     :     0.068380
      dyz     :     0.085278
      dx2y2   :     0.063389
      dxy     :     0.067142
      f0      :     0.004504  f :     0.039295
      f+1     :     0.007834
      f-1     :     0.008781
      f+2     :     0.004341
      f-2     :     0.003043
      f+3     :     0.007316
      f-3     :     0.003476

 10 F s       :     3.923573  s :     3.923573
      pz      :     1.898896  p :     5.262858
      px      :     1.888499
      py      :     1.475464
      dz2     :     0.002069  d :     0.014883
      dxz     :     0.000304
      dyz     :     0.002823
      dx2y2   :     0.005687
      dxy     :     0.003999
      f0      :     0.000047  f :     0.000616
      f+1     :     0.000015
      f-1     :     0.000119
      f+2     :     0.000071
      f-2     :     0.000018
      f+3     :     0.000168
      f-3     :     0.000178

 11 F s       :     3.926920  s :     3.926920
      pz      :     1.496502  p :     5.272738
      px      :     1.904246
      py      :     1.871990
      dz2     :     0.006363  d :     0.014327
      dxz     :     0.003498
      dyz     :     0.003534
      dx2y2   :     0.000466
      dxy     :     0.000466
      f0      :     0.000206  f :     0.000592
      f+1     :     0.000135
      f-1     :     0.000168
      f+2     :     0.000038
      f-2     :     0.000038
      f+3     :     0.000003
      f-3     :     0.000003

 12 F s       :     3.925626  s :     3.925626
      pz      :     1.813173  p :     5.236805
      px      :     1.898748
      py      :     1.524885
      dz2     :     0.002090  d :     0.016217
      dxz     :     0.000805
      dyz     :     0.005211
      dx2y2   :     0.004756
      dxy     :     0.003355
      f0      :     0.000075  f :     0.000680
      f+1     :     0.000004
      f-1     :     0.000121
      f+2     :     0.000179
      f-2     :     0.000063
      f+3     :     0.000108
      f-3     :     0.000129

 13 F s       :     3.926890  s :     3.926890
      pz      :     1.454502  p :     5.245489
      px      :     1.907166
      py      :     1.883822
      dz2     :     0.008327  d :     0.016081
      dxz     :     0.003710
      dyz     :     0.003450
      dx2y2   :     0.000281
      dxy     :     0.000313
      f0      :     0.000332  f :     0.000674
      f+1     :     0.000154
      f-1     :     0.000156
      f+2     :     0.000011
      f-2     :     0.000018
      f+3     :     0.000001
      f-3     :     0.000001

 14 F s       :     3.931450  s :     3.931450
      pz      :     1.493746  p :     5.213573
      px      :     1.908880
      py      :     1.810947
      dz2     :     0.006822  d :     0.016759
      dxz     :     0.003240
      dyz     :     0.005178
      dx2y2   :     0.000735
      dxy     :     0.000785
      f0      :     0.000223  f :     0.000675
      f+1     :     0.000102
      f-1     :     0.000222
      f+2     :     0.000061
      f-2     :     0.000057
      f+3     :     0.000005
      f-3     :     0.000004

 15 F s       :     3.928762  s :     3.928762
      pz      :     1.593169  p :     5.221635
      px      :     1.896930
      py      :     1.731536
      dz2     :     0.004514  d :     0.016540
      dxz     :     0.002640
      dyz     :     0.006270
      dx2y2   :     0.001535
      dxy     :     0.001581
      f0      :     0.000118  f :     0.000686
      f+1     :     0.000056
      f-1     :     0.000249
      f+2     :     0.000122
      f-2     :     0.000102
      f+3     :     0.000021
      f-3     :     0.000018

 16 F s       :     3.928988  s :     3.928988
      pz      :     1.602297  p :     5.228035
      px      :     1.899847
      py      :     1.725891
      dz2     :     0.004315  d :     0.016652
      dxz     :     0.002567
      dyz     :     0.006394
      dx2y2   :     0.001686
      dxy     :     0.001691
      f0      :     0.000110  f :     0.000691
      f+1     :     0.000050
      f-1     :     0.000250
      f+2     :     0.000131
      f-2     :     0.000104
      f+3     :     0.000025
      f-3     :     0.000021

 17 F s       :     3.930521  s :     3.930521
      pz      :     1.716771  p :     5.222396
      px      :     1.900927
      py      :     1.604698
      dz2     :     0.002612  d :     0.016732
      dxz     :     0.001541
      dyz     :     0.006532
      dx2y2   :     0.003369
      dxy     :     0.002679
      f0      :     0.000077  f :     0.000692
      f+1     :     0.000010
      f-1     :     0.000176
      f+2     :     0.000195
      f-2     :     0.000101
      f+3     :     0.000065
      f-3     :     0.000068

 18 F s       :     3.930780  s :     3.930780
      pz      :     1.493093  p :     5.224373
      px      :     1.900853
      py      :     1.830427
      dz2     :     0.007015  d :     0.016677
      dxz     :     0.003538
      dyz     :     0.004839
      dx2y2   :     0.000582
      dxy     :     0.000702
      f0      :     0.000238  f :     0.000689
      f+1     :     0.000117
      f-1     :     0.000226
      f+2     :     0.000045
      f-2     :     0.000056
      f+3     :     0.000004
      f-3     :     0.000003

 19 F s       :     3.929696  s :     3.929696
      pz      :     1.818151  p :     5.218725
[...]
      f-2     :    -0.000002
      f+3     :     0.000001
      f-3     :    -0.000002

 16 F s       :     0.001002  s :     0.001002
      pz      :     0.007467  p :     0.007510
      px      :    -0.000297
      py      :     0.000340
      dz2     :    -0.000052  d :    -0.000280
      dxz     :    -0.000102
      dyz     :    -0.000015
      dx2y2   :    -0.000015
      dxy     :    -0.000096
      f0      :    -0.000002  f :    -0.000015
      f+1     :    -0.000000
      f-1     :    -0.000001
      f+2     :    -0.000000
      f-2     :    -0.000009
      f+3     :    -0.000001
      f-3     :    -0.000001

 17 F s       :     0.000133  s :     0.000133
      pz      :     0.000659  p :     0.000205
      px      :     0.000209
      py      :    -0.000663
      dz2     :     0.000010  d :     0.000224
      dxz     :     0.000032
      dyz     :     0.000018
      dx2y2   :     0.000182
      dxy     :    -0.000018
      f0      :     0.000000  f :     0.000015
      f+1     :     0.000002
      f-1     :     0.000002
      f+2     :     0.000003
      f-2     :     0.000001
      f+3     :    -0.000000
      f-3     :     0.000007

 18 F s       :     0.000082  s :     0.000082
      pz      :    -0.000517  p :     0.000336
      px      :    -0.000130
      py      :     0.000982
      dz2     :     0.000020  d :     0.000245
      dxz     :     0.000008
      dyz     :     0.000093
      dx2y2   :     0.000114
      dxy     :     0.000010
      f0      :     0.000001  f :     0.000015
      f+1     :     0.000001
      f-1     :     0.000004
      f+2     :     0.000008
      f-2     :     0.000001
      f+3     :     0.000001
      f-3     :     0.000000

 19 F s       :     0.000037  s :     0.000037
      pz      :     0.000004  p :    -0.000195
      px      :    -0.000115
      py      :    -0.000084
      dz2     :     0.000002  d :     0.000030
      dxz     :    -0.000003
      dyz     :     0.000000
      dx2y2   :     0.000004
      dxy     :     0.000026
      f0      :    -0.000000  f :     0.000002
      f+1     :     0.000000
      f-1     :    -0.000000
      f+2     :     0.000000
      f-2     :    -0.000000
      f+3     :     0.000001
      f-3     :     0.000001

 20 F s       :     0.000003  s :     0.000003
      pz      :    -0.000073  p :     0.000266
      px      :     0.000180
      py      :     0.000159
      dz2     :     0.000014  d :     0.000057
      dxz     :     0.000042
      dyz     :    -0.000002
      dx2y2   :     0.000000
      dxy     :     0.000003
      f0      :     0.000002  f :     0.000004
      f+1     :     0.000001
      f-1     :    -0.000000
      f+2     :     0.000001
      f-2     :    -0.000000
      f+3     :    -0.000000
      f-3     :     0.000000

 21 F s       :    -0.000008  s :    -0.000008
      pz      :     0.000006  p :    -0.000092
      px      :     0.000002
      py      :    -0.000099
      dz2     :     0.000001  d :     0.000007
      dxz     :     0.000002
      dyz     :     0.000002
      dx2y2   :     0.000002
      dxy     :    -0.000001
      f0      :     0.000000  f :     0.000001
      f+1     :    -0.000000
      f-1     :     0.000000
      f+2     :     0.000000
      f-2     :     0.000000
      f+3     :     0.000000
      f-3     :     0.000000

 22 F s       :     0.000063  s :     0.000063
      pz      :     0.000113  p :     0.000914
      px      :     0.000530
      py      :     0.000272
      dz2     :     0.000006  d :     0.000039
      dxz     :     0.000007
      dyz     :     0.000000
      dx2y2   :     0.000011
      dxy     :     0.000015
      f0      :     0.000000  f :     0.000002
      f+1     :     0.000001
      f-1     :     0.000000
      f+2     :     0.000000
      f-2     :     0.000000
      f+3     :     0.000001
      f-3     :     0.000001

 23 F s       :     0.000001  s :     0.000001
      pz      :    -0.000017  p :     0.000045
      px      :    -0.000026
      py      :     0.000088
      dz2     :     0.000008  d :     0.000015
      dxz     :    -0.000002
      dyz     :     0.000008
      dx2y2   :    -0.000000
      dxy     :     0.000001
      f0      :     0.000000  f :     0.000001
      f+1     :    -0.000000
      f-1     :     0.000000
      f+2     :     0.000000
      f-2     :     0.000000
      f+3     :    -0.000000
      f-3     :    -0.000000



                      *****************************
                      * MAYER POPULATION ANALYSIS *
                      *****************************

  NA   - Mulliken gross atomic population
  ZA   - Total nuclear charge
  QA   - Mulliken gross atomic charge
  VA   - Mayer's total valence
  BVA  - Mayer's bonded valence
  FA   - Mayer's free valence

  ATOM       NA         ZA         QA         VA         BVA        FA
  0 C      5.7873     6.0000     0.2127     4.5832     4.5831     0.0000
  1 O      8.5112     8.0000    -0.5112     1.9570     1.9570     0.0001
  2 O      8.5227     8.0000    -0.5227     1.9442     1.9442     0.0000
  3 C      5.6484     6.0000     0.3516     3.8345     3.8340     0.0005
  4 C      5.6581     6.0000     0.3419     4.1909     4.1887     0.0023
  5 C      5.9156     6.0000     0.0844     3.9318     3.3244     0.6074
  6 C      5.5901     6.0000     0.4099     4.2323     4.2295     0.0028
  7 C      5.7288     6.0000     0.2712     4.1575     4.1562     0.0014
  8 C      5.6647     6.0000     0.3353     4.2057     4.2056     0.0001
  9 C      5.5275     6.0000     0.4725     4.4648     4.4648     0.0000
 10 F      9.2111     9.0000    -0.2111     1.0729     1.0728     0.0000
 11 F      9.2139     9.0000    -0.2139     1.0665     1.0665     0.0000
 12 F      9.1871     9.0000    -0.1871     1.1078     1.1072     0.0006
 13 F      9.1930     9.0000    -0.1930     1.1077     1.1077     0.0000
 14 F      9.1547     9.0000    -0.1547     1.1766     1.1668     0.0098
 15 F      9.1762     9.0000    -0.1762     1.1347     1.1346     0.0001
 16 F      9.1696     9.0000    -0.1696     1.1409     1.1408     0.0001
 17 F      9.1728     9.0000    -0.1728     1.1457     1.1457     0.0000
 18 F      9.1743     9.0000    -0.1743     1.1471     1.1471     0.0000
 19 F      9.1646     9.0000    -0.1646     1.1558     1.1558     0.0000
 20 F      9.1622     9.0000    -0.1622     1.1556     1.1556     0.0000
 21 F      9.1568     9.0000    -0.1568     1.1637     1.1637     0.0000
 22 F      9.1547     9.0000    -0.1547     1.1622     1.1622     0.0000
 23 F      9.1547     9.0000    -0.1547     1.1651     1.1651     0.0000

  Mayer bond orders larger than 0.100000
B(  0-C ,  1-O ) :   1.8483 B(  0-C ,  2-O ) :   1.8301 B(  0-C ,  3-C ) :   0.8291 
B(  3-C ,  4-C ) :   0.9130 B(  3-C , 10-F ) :   1.0143 B(  3-C , 11-F ) :   1.0239 
B(  4-C ,  5-C ) :   1.0239 B(  4-C , 12-F ) :   1.0640 B(  4-C , 13-F ) :   1.0561 
B(  5-C ,  6-C ) :   0.9945 B(  5-C , 14-F ) :   1.0997 B(  6-C ,  7-C ) :   0.9305 
B(  6-C , 15-F ) :   1.0572 B(  6-C , 16-F ) :   1.0928 B(  7-C ,  8-C ) :   0.9161 
B(  7-C , 17-F ) :   1.0594 B(  7-C , 18-F ) :   1.0678 B(  8-C ,  9-C ) :   0.9518 
B(  8-C , 19-F ) :   1.0864 B(  8-C , 20-F ) :   1.0968 B(  9-C , 21-F ) :   1.1289 
B(  9-C , 22-F ) :   1.1326 B(  9-C , 23-F ) :   1.1417 

-------
TIMINGS
-------

Total SCF time: 0 days 0 hours 0 min 37 sec 

Total time                  ....      37.002 sec
Sum of individual times     ....      35.957 sec  ( 97.2%)

SCF preparation             ....       1.298 sec  (  3.5%)
Fock matrix formation       ....      30.694 sec  ( 83.0%)
  Startup                   ....       0.132 sec  (  0.4% of F)
  Split-RI-J                ....       1.749 sec  (  5.7% of F)
  Chain of spheres X        ....      20.273 sec  ( 66.0% of F)
  XC integration            ....       6.750 sec  ( 22.0% of F)
    XC Preparation          ....       0.000 sec  (  0.0% of XC)
    Basis function eval.    ....       0.396 sec  (  5.9% of XC)
    Density eval.           ....       2.018 sec  ( 29.9% of XC)
    XC-Functional eval.     ....       0.127 sec  (  1.9% of XC)
    XC-Potential eval.      ....       1.864 sec  ( 27.6% of XC)
  CPCM terms                ....       1.448 sec  (  4.7% of F)
Diagonalization             ....       0.000 sec  (  0.0%)
Density matrix formation    ....       0.411 sec  (  1.1%)
Total Energy calculation    ....       0.228 sec  (  0.6%)
Population analysis         ....       0.369 sec  (  1.0%)
Orbital Transformation      ....       0.387 sec  (  1.0%)
Orbital Orthonormalization  ....       0.000 sec  (  0.0%)
DIIS solution               ....       0.586 sec  (  1.6%)
SOSCF solution              ....       1.985 sec  (  5.4%)
Finished LeanSCF after  37.3 sec

Maximum memory used throughout the entire LEANSCF-calculation: 108.1 MB


-------------------------------------------------------------------------------
                          DFT DISPERSION CORRECTION                            
                                                                               
                              DFTD3 V3.1  Rev 1                                
                          USING Becke-Johnson damping                          
-------------------------------------------------------------------------------
The R2SCANh functional is recognized
Active option DFTDOPT                   ...         4   

molecular C6(AA) [au] = 6297.483483 


            DFT-D V3
 parameters
 s6 scaling factor         :     1.0000 
 a1 scaling factor         :     0.4709 
 s8 scaling factor         :     1.1236 
 a2 scaling factor         :     5.9157 
 ad hoc parameters k1-k3   :    16.0000     1.3333    -4.0000 

 Edisp/kcal,au: -5.241530136643  -0.008352909070 
 E6   /kcal   :  -3.819050617 
 E8   /kcal   :  -1.422479520 
 % E8         :  27.138630945 

-------------------------   ----------------
Dispersion correction           -0.008352909
-------------------------   ----------------


-------------------------   --------------------
FINAL SINGLE POINT ENERGY     -1853.116905788082
-------------------------   --------------------

                                *** OPTIMIZATION RUN DONE ***



           ************************************************************
           *        Program running with 20 parallel MPI-processes    *
           *              working on a common directory               *
           ************************************************************

------------------------------------------------------------------------------
                              ORCA PROPERTY CALCULATIONS
------------------------------------------------------------------------------

GBWName                                 ... rf_mecn_opt_r2s_C4_D_B.gbw
Number of atoms                         ...     24
Number of basis functions               ...    744
Max core memory                         ...   8000 MB

Electric properties:
Dipole moment                           ... YES
Quadrupole moment                       ...  NO
Static polarizability (Dipole/Dipole)   ...  NO
Static polarizability (Dipole/Quad.)    ...  NO
Static polarizability (Quad./Quad.)     ...  NO
Static polarizability (Velocity)        ...  NO

Atomic electric properties:
Dipole moment                           ...  NO
Quadrupole moment                       ...  NO
Static polarizability                   ...  NO

Choice of electric origin               ... Center of mass
Position of electric origin             ...    -0.145592     0.094463     0.065678

General magnetic properties:
Magnetizability                         ...  NO

EPR properties:
g-Tensor (aka g-matrix)                 ...  NO
Zero-Field splitting spin-orbit         ...  NO
Zero-field splitting spin-spin          ...  NO
Hyperfine couplings                     ...  NO (   0 nuclei)
Quadrupole couplings                    ...  NO (   0 nuclei)
Contact density                         ...  NO (   0 nuclei)

NMR properties:
Chemical shifts                         ...  NO (   0 nuclei)
Spin-rotation constants                 ...  NO (   0 nuclei)
Spin-spin couplings                     ...  NO (   0 nuclei,    0 pairs)

Choice of magnetic origin               ... GIAO
Position of magnetic origin             ...     0.000000     0.000000     0.000000

Properties with geometric perturbations:
SCF Hessian                             ...  NO
IR spectrum                             ...  NO
VCD spectrum                            ...  NO
X-ray spectroscopy properties:
SCF XES/XAS/RIXS spectra                ...  NO


-------------
DIPOLE MOMENT
-------------

Method             : SCF
Type of density    : Electron Density
Multiplicity       :   2
Irrep              :   0
Energy             : -1853.1085528790122225 Eh
Relativity type    : 
Basis              : AO
                                X                 Y                 Z
Electronic contribution:    -15.153294089       2.497438370       4.376947214
Nuclear contribution   :      8.086943770      -1.055797656      -2.190338032
                        -----------------------------------------
Total Dipole Moment    :     -7.066350319       1.441640714       2.186609182
                        -----------------------------------------
Magnitude (a.u.)       :      7.536106057
Magnitude (Debye)      :     19.155259302



--------------------
Rotational spectrum 
--------------------
 
Rotational constants in cm-1:             0.016206             0.005024             0.004592 
Rotational constants in MHz :           485.835284           150.614621           137.658898 

Dipole components along the rotational axes: 
x,y,z [a.u.] :    -6.986582     2.757996     0.611578 
x,y,z [Debye]:   -17.758479     7.010270     1.554509 

 

Dipole moment calculation done in   0.1 sec 

Maximum memory used throughout the entire PROP-calculation: 55.6 MB

--------------------------------
SUGGESTED CITATIONS FOR THIS RUN
--------------------------------

Below you find a list of papers that are relevant to this ORCA run
We neither can nor want to force you to cite these papers, but we appreciate if you do
You receive ORCA, which is the product of decades of hard work by many enthusiastic individuals, for free
The only thing we kindly ask in return is that you cite our papers,
We deeply appreciate it, if you show your appreciation for ORCA by not just citing the generic ORCA reference.

Please note that relegating all ORCA citations to the supporting information does *not* help us.
SI sections are not indexed - citations you put there will not count into any citation statistics
But we need these citations in order to attract the funding resources that allow us to do what we are doing

Therefore, if you are a happy ORCA user, please consider citing a few of the papers listed below in the main body of your paper

In addition to the list printed below, the program has created the file rf_mecn_opt_r2s_C4_D_B.bibtex that contains the list in bibtex format
You can import this file easily into all common literature databanks and citation aid programs


List of essential papers. We consider these as the minimum necessary citations

  1. Neese,F.
     Software update: the ORCA program system, version 5.0
     WIRES Comput. Molec. Sci., 2022 12(1)e1606
     doi.org/10.1002/wcms.1606

List of papers to cite with high priority. The work reported in these papers was absolutely
necessary for this run to complete.
Our perspective: the developers of density functionals and basis sets usually get cited in chemistry papers
Good! But without the algorithms to do something with them, the functionals or basis sets would not do anything.
Hence, in our opinion, the algorithm design and method developments papers are equally worthy of getting cited

  1. Neese,F.
     An improvement of the resolution of the identity approximation for the formation of the Coulomb matrix
     J. Comp. Chem., 2003 24(14)1740-1747
     doi.org/10.1002/jcc.10318
  2. Neese,F.; Wennmohs,F.; Hansen,A.; Becker,U.
     Efficient, approximate and parallel Hartree-Fock and hybrid DFT calculations. A 'chain-of-spheres' algorithm for the Hartree-Fock exchange
     Chem. Phys., 2009 356(1-3)98-109
     doi.org/10.1016/j.chemphys.2008.10.036
  3. Garcia-Rates,M.; Neese,F.
     Effect of the Solute Cavity on the Solvation Energy and its Derivatives within the Framework of the Gaussian Charge Scheme
     J. Comput. Chem., 2020 41 922-939
     doi.org/10.1002/jcc.26139
  4. Helmich-Paris,B.; de Souza,B.; Neese,F.; Izsák,R.
     An improved chain of spheres for exchange algorithm
     J. Chem. Phys., 2021 155 104109
     doi.org/doi: 10.1063/5.0058766.
  5. Neese,F.
     The SHARK Integral Generation and Digestion System
     J. Comp. Chem., 2022  1-16
     doi.org/10.1002/jcc.26942
  6. Lehtola,S.; Steigemann,C.; Oliveira,M.; Marques,M.
     Recent developments in Libxc - A comprehensive library of functionals for density functional theory
     Software X, 2018 7 
     doi.org/10.1016/j.softx.2017.11.002
  7. Grimme,S.; Antony,J.; Ehrlich,S.; Krieg,H.
     A consistent and accurate ab initio parametrization of density functional dispersion correction (DFT-D) for the 94 elements H-Pu
     J. Chem. Phys., 2010 132 154104
     doi.org/10.1063/1.3382344
  8. Grimme,S.; Ehrlich,S.; Goerigk,L.
     Effect of the damping function in dispersion corrected density functional theory
     J. Comput. Chem., 2011 32(7)1456-1465
     doi.org/10.1002/jcc.21759
  9. Bursch,M.; Neugebauer,H.; Ehlert,S.; Grimme,S.
     Dispersion corrected r2SCAN based global hybrid functionals: r2SCANh, r2SCAN0, and r2SCAN50
     J. Phys. Chem., 2022 156(13)134105
     doi.org/10.1063/5.0086040

List of suggested additional citations. These are papers that are important in the 'surrounding' of 
of this run, or papers that preceded the highly important papers. If you like your results we are grateful for a citation.

  1. Izsak,R.; Neese,F.
     An overlap fitted chain of spheres exchange method
     J. Chem. Phys., 2011 135 144105
     doi.org/10.1063/1.3646921
  2. Izsak,R.; Hansen,A.; Neese,F.
     The resolution of identity and chain of spheres approximations for the LPNO-CCSD singles Fock term
     Molec. Phys., 2012 110 2413-2417
     doi.org/10.1080/00268976.2012.687466
  3. Neese,F.
     The ORCA program system
     WIRES Comput. Molec. Sci., 2012 2(1)73-78
     doi.org/10.1002/wcms.81
  4. Izsak,R.; Neese,F.; Klopper,W.
     Robust fitting techniques in the chain of spheres approximation to the Fock exchange: The role of the complementary space
     J. Chem. Phys., 2013 139 
     doi.org/10.1063/1.4819264
  5. Neese,F.
     Software update: the ORCA program system, version 4.0
     WIRES Comput. Molec. Sci., 2018 8(1)1-6
     doi.org/10.1002/wcms.1327
  6. Neese,F.; Wennmohs,F.; Becker,U.; Riplinger,C.
     The ORCA quantum chemistry program package
     J. Chem. Phys., 2020 152 Art. No. L224108
     doi.org/10.1063/5.0004608
  7. Wittmann,L.; Neugebauer,H.; Grimme,S.; Bursch,M.
     Dispersion-corrected r2SCAN based double-hybrid functionals
     J. Chem. Phys., 2023 159(22)224103
     doi.org/10.1063/5.0174988

List of optional additional citations

  1. Neese,F.
     Approximate second-order SCF convergence for spin unrestricted wavefunctions
     Chem. Phys. Lett., 2000 325(1-3)93-98
     doi.org/10.1016/s0009-2614(00)00662-x

Timings for individual modules:

Sum of individual times          ...     2886.564 sec (=  48.109 min)
Startup calculation              ...      129.970 sec (=   2.166 min)   4.5 %
SCF iterations                   ...     2107.530 sec (=  35.126 min)  73.0 %
Property calculations            ...        0.803 sec (=   0.013 min)   0.0 %
SCF Gradient evaluation          ...      647.731 sec (=  10.796 min)  22.4 %
Geometry relaxation              ...        0.530 sec (=   0.009 min)   0.0 %
                             ****ORCA TERMINATED NORMALLY****
TOTAL RUN TIME: 0 days 0 hours 48 minutes 29 seconds 195 msec
