
                                 *****************
                                 * O   R   C   A *
                                 *****************

                                            #,                                       
                                            ###                                      
                                            ####                                     
                                            #####                                    
                                            ######                                   
                                           ########,                                 
                                     ,,################,,,,,                         
                               ,,#################################,,                 
                          ,,##########################################,,             
                       ,#########################################, ''#####,          
                    ,#############################################,,   '####,        
                  ,##################################################,,,,####,       
                ,###########''''           ''''###############################       
              ,#####''   ,,,,##########,,,,          '''####'''          '####       
            ,##' ,,,,###########################,,,                        '##       
           ' ,,###''''                  '''############,,,                           
         ,,##''                                '''############,,,,        ,,,,,,###''
      ,#''                                            '''#######################'''  
     '                                                          ''''####''''         
             ,#######,   #######,   ,#######,      ##                                
            ,#'     '#,  ##    ##  ,#'     '#,    #''#        ,####,   ,####,        
            ##       ##  ##   ,#'  ##            #'  '#       #'       #'  '#        
            ##       ##  #######   ##           ,######,      #####,   #    #        
            '#,     ,#'  ##    ##  '#,     ,#' ,#      #,     #,   #   #,  ,#        
             '#######'   ##     ##  '#######'  #'      '#     '####' # '####'        



                #########################################################
                #                        -***-                          #
                #          Department of theory and spectroscopy        #
                #                                                       #
                #                      Frank Neese                      #
                #                                                       #
                #     Directorship, Architecture, Infrastructure        #
                #                    SHARK, DRIVERS                     #
                #        Core code/Algorithms in most modules           #
                #                                                       #
                #        Max Planck Institute fuer Kohlenforschung      #
                #                Kaiser Wilhelm Platz 1                 #
                #                 D-45470 Muelheim/Ruhr                 #
                #                      Germany                          #
                #                                                       #
                #                  All rights reserved                  #
                #                        -***-                          #
                #########################################################


                         Program Version 6.0.1  -  RELEASE   -


 With contributions from (in alphabetic order):
[Max-Planck-Institut fuer Kohlenforschung]                               
  Daniel Aravena         : Magnetic Suceptibility                        
  Michael Atanasov       : Ab Initio Ligand Field Theory (pilot matlab implementation)
  Alexander A. Auer      : GIAO ZORA, VPT2 properties, NMR spectrum      
  Ute Becker             : All parallelization in ORCA, NUMFREQ, NUMCALC 
  Giovanni Bistoni       : ED, misc. LED, open-shell LED, HFLD           
  Martin Brehm           : Molecular dynamics                            
  Dmytro Bykov           : pre 5.0 version of the SCF Hessian            
  Marcos Casanova-Páez   : Triplet and SCS-CIS(D). UHF-(DLPNO)-IP/EA/STEOM-CCSD. UHF-CVS-IP/STEOM-CCSD   
  Vijay G. Chilkuri      : MRCI spin determinant printing, contributions to CSF-ICE 
  Pauline Colinet        : FMM embedding                                 
  Dipayan Datta          : RHF DLPNO-CCSD density                        
  Achintya Kumar Dutta   : EOM-CC, STEOM-CC                              
  Nicolas Foglia         : Exact transition moments, OPA infrastructure, MCD improvements    
  Dmitry Ganyushin       : Spin-Orbit,Spin-Spin,Magnetic field MRCI      
  Miquel Garcia-Rates    : C-PCM and meta-GGA Hessian, CCSD/C-PCM, Gaussian charge scheme 
  Tiago L. C. Gouveia    : GS-ROHF, GS-ROCIS                             
  Yang Guo               : DLPNO-NEVPT2, F12-NEVPT2, CIM, IAO-localization        
  Andreas Hansen         : Spin unrestricted coupled pair/coupled cluster methods 
  Ingolf Harden          : AUTO-CI MPn and infrastructure                
  Benjamin Helmich-Paris : MC-RPA, TRAH-(SCF,CASSCF), AVAS, COSX integrals, SCF dyn. polar. 
  Lee Huntington         : MR-EOM, pCC                                   
  Robert Izsak           : Overlap fitted RIJCOSX, COSX-SCS-MP3, EOM     
  Riya Kayal             : Wick's Theorem for AUTO-CI, AUTO-CI UHF-CCSDT 
  Emily Kempfer          : AUTO-CI, RHF CISDT and CCSDT                  
  Christian Kollmar      : KDIIS, OOCD, Brueckner-CCSD(T), CCSD density, CASPT2, CASPT2-K, improved NEVPT2 
  Axel Koslowski         : Symmetry handling                             
  Simone Kossmann        : meta-GGA functionals, TD-DFT gradient, OOMP2, (MP2 Hessian; deprecated post 5.0) 
  Lucas Lang             : DCDCAS                                        
  Marvin Lechner         : AUTO-CI (C++ implementation), FIC-MRCC        
  Spencer Leger          : CASSCF response                               
  Dagmar Lenk            : GEPOL surface, SMD, ORCA-2-JSON               
  Dimitrios Liakos       : Extrapolation schemes; Compound Job, initial MDCI parallelization 
  Dimitrios Manganas     : Further ROCIS development; embedding schemes. LFT, Crystal Embedding 
  Dimitrios Pantazis     : SARC Basis sets                               
  Anastasios Papadopoulos: AUTO-CI, single reference methods and gradients 
  Taras Petrenko         : pre 6.0 DFT Hessian and TD-DFT gradient, (ASA, deprecated), ECA, 1-Electron XAS/XES, NRVS 
  Peter Pinski           : DLPNO-MP2, DLPNO-MP2 Gradient                 
  Christoph Reimann      : Effective Core Potentials                     
  Marius Retegan         : Local ZFS, SOC                                
  Christoph Riplinger    : Optimizer, TS searches, QM/MM, DLPNO-CCSD(T), (RO)-DLPNO pert. Triples 
  Michael Roemelt        : Original ROCIS implementation                 
  Masaaki Saitow         : Open-shell DLPNO-CCSD energy and density      
  Barbara Sandhoefer     : DKH picture change effects                    
  Kantharuban Sivalingam : CASSCF convergence/infrastructure, NEVPT2 and variants, FIC-MRCI 
  Bernardo de Souza      : ESD, SOC TD-DFT                               
  Georgi L. Stoychev     : AutoAux, RI-MP2 NMR, DLPNO-MP2 response, X2C  
  Van Anh Tran           : RI-MP2 g-tensors                              
  Willem Van den Heuvel  : Paramagnetic NMR                              
  Zikuan Wang            : NOTCH, Electric field optimization            
  Frank Wennmohs         : Technical directorship and infrastructure     
  Hang Xu                : AUTO-CI-Response properties                   
                                                                         
[FACCTs GmbH]                                                            
  Markus Bursch, Miquel Garcia-Rates, Christoph Riplinger, Bernardo de Souza, Georgi L. Stoychev 
                                                                 
  APM, Basis sets (HGBS, AHGBS, def-TZVP (Ac-Lr), def2-XVPD (La-Lu)), CI-OPT, improved COSX, DLPNO-Multilevel,           
  DOCKER, DRACO, updates on ESD, GOAT, IRC, LR-CPCM, MBIS, meta-GGA TD-DFT gradient, ML-optimized integration grids, 
  MM, NACMEs, nearIR, NEB, NEB-TS, NL-DFT gradient (VV10), 2- and 3-layer-ONIOM, interface openCOSMO-RS, QMMM,   
  Crystal-QMMM, SF, symmetry and pop. for TD-DFT, r2SCAN hybrids, SOLVATOR                                   
                                                                         
[Other institutions]                                                     
  V. Asgeirsson          : NEB                                           
  Christoph Bannwarth    : sTDA-DFT, sTD-DFT, PBEh-3c, B97-3c, D3        
  Sebastian Ehlert       : rSCAN, r2SCAN, r2SCAN-3c, D4, dhf basis sets  
  Marvin Friede          : D4 for Fr, Ra, Ac-Lr                          
  Lars Goerigk           : TD-DFT with DH, B97 family of functionals     
  Stefan Grimme          : VdW corrections, initial TS optimization, DFT functionals, gCP, sTDA/sTD-DF 
  Waldemar Hujo          : DFT-NL                                        
  H. Jonsson             : NEB                                           
  Holger Kruse           : gCP                                           
  Marcel Mueller         : wB97X-3c, vDZP basis set                      
  Hagen Neugebauer       : wr2SCAN                                       
  Tobias Risthaus        : range-separated hybrid DFT                    
  Lukas Wittmann         : regularized MP2, r2SCAN double-hybrids, wr2SCAN        
                                                                         
We gratefully acknowledge several colleagues who have allowed us to      
interface, adapt or use parts of their codes:                            
  Ed Valeev, F. Pavosevic, A. Kumar             : LibInt (2-el integral package), F12 methods 
  Garnet Chan, S. Sharma, J. Yang, R. Olivares  : DMRG                   
  Ulf Ekstrom                                   : XCFun DFT Library      
  Mihaly Kallay                                 : mrcc  (arbitrary order and MRCC methods)
  Frank Weinhold                                : gennbo (NPA and NBO analysis)           
  Simon Mueller                                 : openCOSMO-RS                            
  Christopher J. Cramer and Donald G. Truhlar   : smd solvation model                     
  S Lehtola, MJT Oliveira, MAL Marques          : LibXC Library                           
  Liviu Ungur et al                             : ANISO software                          


 Your calculation uses the libint2 library for the computation of 2-el integrals
 For citations please refer to: http://libint.valeyev.net

 Your ORCA version has been built with support for libXC version: 6.2.2
 For citations please refer to: https://libxc.gitlab.io

 This ORCA versions uses:
   CBLAS   interface :  Fast vector & matrix operations
   LAPACKE interface :  Fast linear algebra routines
   SCALAPACK package :  Parallel linear algebra routines
   Shared memory     :  Shared parallel matrices
   BLAS/LAPACK       :  OpenBLAS 0.3.27  USE64BITINT DYNAMIC_ARCH NO_AFFINITY SkylakeX SINGLE_THREADED
        Core in use  :  SkylakeX
   Copyright (c) 2011-2014, The OpenBLAS Project


NOTE: MaxCore=8000 MB was set to SCF,MP2,MDCI,CIPSI,MRCI and CIS
      => If you want to overwrite this, your respective input block should be placed after the MaxCore statement
Your calculation utilizes the atom-pairwise dispersion correction
with the Becke-Johnson damping scheme (D3BJ)


Your calculation utilizes the SMD solvation module
Please cite in your paper:
A.V. Marenich, C.J. Cramer, D.G. Truhlar J. Phys. Chem. B, 113, (2009), 6378 

Warning: RI is on but no J-basis has been assigned. Assigning Def2/J (nothing to worry about!)
================================================================================

----- Orbital basis set information -----
Your calculation utilizes the basis: def2-TZVP
   F. Weigend and R. Ahlrichs, Phys. Chem. Chem. Phys. 7, 3297 (2005).

----- AuxJ basis set information -----
Your calculation utilizes the auxiliary basis: def2/J
   F. Weigend, Phys. Chem. Chem. Phys. 8, 1057 (2006).

================================================================================
                                        WARNINGS
                       Please study these warnings very carefully!
================================================================================


WARNING: your system is open-shell and RHF/RKS was chosen
  ===> : WILL SWITCH to UHF/UKS


WARNING: Geometry Optimization
  ===> : Switching off AutoStart
         For restart on a previous wavefunction, please use MOREAD

================================================================================
                                       INPUT FILE
================================================================================
NAME = rf_mecn_opt_B3L_P_A-2.inp
|  1> !B3LYP def2-TZVP opt d3 TightSCF SlowConv defgrid2
|  2>  
|  3> %pal
|  4> nprocs 20
|  5> end
|  6>  
|  7> %scf
|  8> MaxIter 1500
|  9> end
| 10>  
| 11> %maxcore 8000
| 12>  
| 13> !CPCM
| 14> %cpcm smd true
| 15> SMDsolvent "ACETONITRILE"
| 16> end
| 17>  
| 18> * xyz -1 2
| 19> 6        4.870906397      0.061888661     -0.237292510
| 20> 8        5.271940174     -0.267476354     -1.399541711
| 21> 8        5.203187478      1.337876105      0.278273556
| 22> 1        5.668158999      1.786076840     -0.446718784
| 23> 6        3.577190606     -0.417061850      0.325730837
| 24> 6        2.245024540      0.218842756     -0.204004451
| 25> 6        0.891320286     -0.467997151      0.173792354
| 26> 6       -0.382269188      0.419918005     -0.023365189
| 27> 6       -1.728626502     -0.380951428     -0.034067234
| 28> 6       -2.989669377      0.508649937      0.220799218
| 29> 6       -4.341700350     -0.148256685     -0.200457220
| 30> 9        3.454956342     -1.770907039      0.081229207
| 31> 9        3.545488518     -0.229037896      1.697273539
| 32> 9        2.190934323      1.506680122      0.238734203
| 33> 9        2.305906375      0.246046282     -1.564120563
| 34> 9        0.746279290     -1.583774915     -0.584187158
| 35> 9        0.928008200     -0.837544543      1.477151553
| 36> 9       -0.436766777      1.327546928      0.978944699
| 37> 9       -0.285373169      1.079994905     -1.200191876
| 38> 9       -1.690728565     -1.332385248      0.925305417
| 39> 9       -1.863434049     -0.985412705     -1.235071462
| 40> 9       -2.875331257      1.665488073     -0.468927793
| 41> 9       -3.065592445      0.790736220      1.537304067
| 42> 9       -4.452300700     -1.378234719      0.311637220
| 43> 9       -5.347318642      0.600905856      0.263788886
| 44> 9       -4.445219507     -0.217868155     -1.529143803
| 45> *
| 46> 
| 47>                          ****END OF INPUT****
================================================================================

                       *****************************
                       * Geometry Optimization Run *
                       *****************************

Geometry optimization settings:
Update method            Update   .... BFGS
Choice of coordinates    CoordSys .... (2022) Redundant Internals
Initial Hessian          InHess   .... Almloef's Model
Max. no of cycles        MaxIter  .... 78

Convergence Tolerances:
Energy Change            TolE     ....  5.0000e-06 Eh
Max. Gradient            TolMAXG  ....  3.0000e-04 Eh/bohr
RMS Gradient             TolRMSG  ....  1.0000e-04 Eh/bohr
Max. Displacement        TolMAXD  ....  4.0000e-03 bohr
RMS Displacement         TolRMSD  ....  2.0000e-03 bohr
Strict Convergence                .... False

------------------------------------------------------------------------------
                        ORCA OPTIMIZATION COORDINATE SETUP
------------------------------------------------------------------------------

The optimization will be done in redundant internal coordinates (2022)
Making redundant internal coordinates   ...  (2022 redundants) done
Evaluating the initial hessian          ...  (Almloef) done
Evaluating the coordinates              ...  done
Calculating the B-matrix                .... done
Calculating the G-matrix                .... done
Diagonalizing the G-matrix              .... done
Small eigenvalue found = 4.715e-03
Small eigenvalue found = 1.362e-02
Small eigenvalue found = 2.480e-02
The first mode is                       ....   42
The number of degrees of freedom        ....   72

    -----------------------------------------------------------------
                    Redundant Internal Coordinates


    -----------------------------------------------------------------
         Definition                    Initial Value    Approx d2E/dq
    -----------------------------------------------------------------
      1. B(O   1,C   0)                  1.2728         0.860577   
      2. B(O   2,C   0)                  1.4158         0.509078   
      3. B(H   3,O   2)                  0.9709         0.499500   
      4. B(C   4,C   0)                  1.4900         0.432714   
      5. B(C   5,C   4)                  1.5683         0.324507   
      6. B(C   6,C   5)                  1.5643         0.329363   
      7. B(C   7,C   6)                  1.5650         0.328475   
      8. B(C   8,C   7)                  1.5666         0.326596   
      9. B(C   9,C   8)                  1.5642         0.329524   
     10. B(C  10,C   9)                  1.5611         0.333266   
     11. B(F  11,C   4)                  1.3812         0.537107   
     12. B(F  12,C   4)                  1.3847         0.530113   
     13. B(F  13,C   5)                  1.3629         0.574407   
     14. B(F  14,C   5)                  1.3617         0.576817   
     15. B(F  15,C   6)                  1.3567         0.587701   
     16. B(F  16,C   6)                  1.3552         0.590793   
     17. B(F  17,C   7)                  1.3533         0.595032   
     18. B(F  18,C   7)                  1.3528         0.596143   
     19. B(F  19,C   8)                  1.3517         0.598539   
     20. B(F  20,C   8)                  1.3513         0.599435   
     21. B(F  21,C   9)                  1.3517         0.598529   
     22. B(F  22,C   9)                  1.3485         0.605531   
     23. B(F  23,C  10)                  1.3369         0.631937   
     24. B(F  24,C  10)                  1.3372         0.631314   
     25. B(F  25,C  10)                  1.3345         0.637479   
     26. A(O   2,C   0,C   4)          110.8479         0.390707   
     27. A(O   1,C   0,O   2)          119.4584         0.438606   
     28. A(O   1,C   0,C   4)          122.3726         0.428775   
     29. A(C   0,O   2,H   3)          104.8640         0.355418   
     30. A(C   5,C   4,F  11)          105.2171         0.373535   
     31. A(C   0,C   4,F  12)          110.5179         0.391785   
     32. A(F  11,C   4,F  12)          107.8431         0.402587   
     33. A(C   5,C   4,F  12)          105.0731         0.372692   
     34. A(C   0,C   4,C   5)          118.6562         0.363733   
     35. A(C   0,C   4,F  11)          108.9677         0.392684   
     36. A(C   4,C   5,C   6)          118.3895         0.347276   
     37. A(C   6,C   5,F  14)          106.7793         0.379139   
     38. A(F  13,C   5,F  14)          107.9002         0.413531   
     39. A(C   4,C   5,F  14)          107.9080         0.378165   
     40. A(C   6,C   5,F  13)          107.5834         0.378864   
     41. A(C   4,C   5,F  13)          107.8860         0.377891   
     42. A(C   5,C   6,C   7)          115.1316         0.347988   
     43. A(F  15,C   6,F  16)          108.4183         0.416989   
     44. A(C   7,C   6,F  16)          107.3310         0.380537   
     45. A(C   5,C   6,F  16)          109.1820         0.380716   
     46. A(C   7,C   6,F  15)          108.0126         0.380191   
     47. A(C   5,C   6,F  15)          108.5841         0.380369   
     48. A(F  17,C   7,F  18)          108.6595         0.418582   
     49. A(C   8,C   7,F  18)          107.7618         0.380754   
     50. A(C   6,C   7,F  18)          109.1557         0.381133   
     51. A(C   8,C   7,F  17)          108.2593         0.380631   
     52. A(C   6,C   7,F  17)          108.6617         0.381010   
     53. A(C   6,C   7,C   8)          114.2176         0.347494   
     54. A(C   7,C   8,F  19)          109.3232         0.381019   
     55. A(C   7,C   8,C   9)          113.6415         0.347680   
     56. A(F  19,C   8,F  20)          108.5879         0.419432   
     57. A(C   9,C   8,F  20)          108.5906         0.381709   
     58. A(C   7,C   8,F  20)          108.6927         0.381118   
     59. A(C   9,C   8,F  19)          107.8957         0.381609   
     60. A(F  21,C   9,F  22)          108.8983         0.420189   
     61. A(C   8,C   9,C  10)          114.5164         0.348867   
     62. A(C  10,C   9,F  22)          107.6201         0.383130   
     63. A(C   8,C   9,F  22)          108.8707         0.382380   
     64. A(C  10,C   9,F  21)          107.1999         0.382357   
     65. A(C   8,C   9,F  21)          109.5977         0.381608   
     66. A(F  24,C  10,F  25)          108.4545         0.428134   
     67. A(F  23,C  10,F  25)          109.0844         0.428210   
     68. A(C   9,C  10,F  25)          110.9651         0.386573   
     69. A(F  23,C  10,F  24)          108.6777         0.427465   
     70. A(C   9,C  10,F  24)          108.7774         0.385919   
     71. A(C   9,C  10,F  23)          110.8199         0.385986   
     72. D(H   3,O   2,C   0,O   1)      4.1084         0.018637   
     73. D(H   3,O   2,C   0,C   4)   -146.7124         0.018637   
     74. D(C   5,C   4,C   0,O   2)     74.8919         0.013825   
     75. D(F  11,C   4,C   0,O   2)   -164.8353         0.013825   
     76. D(C   5,C   4,C   0,O   1)    -74.9342         0.013825   
     77. D(F  11,C   4,C   0,O   1)     45.3386         0.013825   
     78. D(F  12,C   4,C   0,O   1)    163.6703         0.013825   
     79. D(F  13,C   5,C   4,F  12)     54.7129         0.008606   
     80. D(F  13,C   5,C   4,F  11)    168.4235         0.008606   
     81. D(F  13,C   5,C   4,C   0)    -69.4008         0.008606   
     82. D(C   6,C   5,C   4,F  12)    -67.6479         0.008606   
     83. D(C   6,C   5,C   4,F  11)     46.0626         0.008606   
     84. D(C   6,C   5,C   4,C   0)    168.2384         0.008606   
     85. D(C   7,C   6,C   5,F  13)     40.5489         0.008837   
     86. D(C   7,C   6,C   5,C   4)    163.0620         0.008837   
     87. D(F  15,C   6,C   5,F  14)     46.1377         0.008837   
     88. D(F  15,C   6,C   5,F  13)    161.7523         0.008837   
     89. D(F  15,C   6,C   5,C   4)    -75.7347         0.008837   
     90. D(C   7,C   6,C   5,F  14)    -75.0657         0.008837   
     91. D(F  17,C   7,C   6,F  16)     46.4048         0.008795   
     92. D(F  17,C   7,C   6,F  15)    163.1169         0.008795   
     93. D(F  17,C   7,C   6,C   5)    -75.3696         0.008795   
     94. D(C   8,C   7,C   6,F  16)    -74.5610         0.008795   
     95. D(C   8,C   7,C   6,F  15)     42.1511         0.008795   
     96. D(C   8,C   7,C   6,C   5)    163.6646         0.008795   
     97. D(F  19,C   8,C   7,F  17)    -79.9657         0.008705   
     98. D(F  19,C   8,C   7,C   6)     41.2230         0.008705   
     99. D(C   9,C   8,C   7,F  18)    -76.7233         0.008705   
    100. D(C   9,C   8,C   7,F  17)     40.6288         0.008705   
    101. D(F  19,C   8,C   7,F  18)    162.6822         0.008705   
    102. D(C   9,C   8,C   7,C   6)    161.8175         0.008705   
    103. D(F  21,C   9,C   8,F  20)    -79.0785         0.008845   
    104. D(F  21,C   9,C   8,F  19)    163.4041         0.008845   
    105. D(F  21,C   9,C   8,C   7)     42.0095         0.008845   
    106. D(C  10,C   9,C   8,F  20)     41.4105         0.008845   
    107. D(C  10,C   9,C   8,F  19)    -76.1068         0.008845   
    108. D(C  10,C   9,C   8,C   7)    162.4985         0.008845   
    109. D(F  24,C  10,C   9,F  21)    -68.3344         0.009027   
    110. D(F  24,C  10,C   9,C   8)    169.8568         0.009027   
    111. D(F  23,C  10,C   9,F  22)    -70.7471         0.009027   
    112. D(F  23,C  10,C   9,F  21)    172.2486         0.009027   
    113. D(F  24,C  10,C   9,F  22)     48.6698         0.009027   
    114. D(F  23,C  10,C   9,C   8)     50.4398         0.009027   
    -----------------------------------------------------------------

Number of atoms                         .... 26
Number of degrees of freedom            .... 114


         *************************************************************
         *                GEOMETRY OPTIMIZATION CYCLE   1            *
         *************************************************************
---------------------------------
CARTESIAN COORDINATES (ANGSTROEM)
---------------------------------
  C      4.870906    0.061889   -0.237293
  O      5.271940   -0.267476   -1.399542
  O      5.203187    1.337876    0.278274
  H      5.668159    1.786077   -0.446719
  C      3.577191   -0.417062    0.325731
  C      2.245025    0.218843   -0.204004
  C      0.891320   -0.467997    0.173792
  C     -0.382269    0.419918   -0.023365
  C     -1.728627   -0.380951   -0.034067
  C     -2.989669    0.508650    0.220799
  C     -4.341700   -0.148257   -0.200457
  F      3.454956   -1.770907    0.081229
  F      3.545489   -0.229038    1.697274
  F      2.190934    1.506680    0.238734
  F      2.305906    0.246046   -1.564121
  F      0.746279   -1.583775   -0.584187
  F      0.928008   -0.837545    1.477152
  F     -0.436767    1.327547    0.978945
  F     -0.285373    1.079995   -1.200192
  F     -1.690729   -1.332385    0.925305
  F     -1.863434   -0.985413   -1.235071
  F     -2.875331    1.665488   -0.468928
  F     -3.065592    0.790736    1.537304
  F     -4.452301   -1.378235    0.311637
  F     -5.347319    0.600906    0.263789
  F     -4.445220   -0.217868   -1.529144

----------------------------
CARTESIAN COORDINATES (A.U.)
----------------------------
  NO LB      ZA    FRAG     MASS         X           Y           Z
   0 C     6.0000    0    12.011    9.204679    0.116953   -0.448418
   1 O     8.0000    0    15.999    9.962523   -0.505457   -2.644751
   2 O     8.0000    0    15.999    9.832599    2.528219    0.525861
   3 H     1.0000    0     1.008   10.711268    3.375196   -0.844176
   4 C     6.0000    0    12.011    6.759911   -0.788133    0.615542
   5 C     6.0000    0    12.011    4.242482    0.413553   -0.385513
   6 C     6.0000    0    12.011    1.684351   -0.884386    0.328420
   7 C     6.0000    0    12.011   -0.722384    0.793530   -0.044154
   8 C     6.0000    0    12.011   -3.266631   -0.719894   -0.064378
   9 C     6.0000    0    12.011   -5.649656    0.961209    0.417250
  10 C     6.0000    0    12.011   -8.204625   -0.280165   -0.378809
  11 F     9.0000    0    18.998    6.528921   -3.346529    0.153501
  12 F     9.0000    0    18.998    6.700002   -0.432819    3.207382
  13 F     9.0000    0    18.998    4.140266    2.847213    0.451142
  14 F     9.0000    0    18.998    4.357532    0.464960   -2.955760
  15 F     9.0000    0    18.998    1.410263   -2.992901   -1.103954
  16 F     9.0000    0    18.998    1.753681   -1.582730    2.791412
  17 F     9.0000    0    18.998   -0.825370    2.508700    1.849937
  18 F     9.0000    0    18.998   -0.539277    2.040895   -2.268034
  19 F     9.0000    0    18.998   -3.195014   -2.517843    1.748574
  20 F     9.0000    0    18.998   -3.521380   -1.862160   -2.333947
  21 F     9.0000    0    18.998   -5.433589    3.147316   -0.886145
  22 F     9.0000    0    18.998   -5.793130    1.494275    2.905084
  23 F     9.0000    0    18.998   -8.413629   -2.604486    0.588909
  24 F     9.0000    0    18.998  -10.104968    1.135548    0.498489
  25 F     9.0000    0    18.998   -8.400247   -0.411711   -2.889663

--------------------------------
INTERNAL COORDINATES (ANGSTROEM)
--------------------------------
 C      0   0   0     0.000000000000     0.00000000     0.00000000
 O      1   0   0     1.272844298658     0.00000000     0.00000000
 O      1   2   0     1.415755290453   119.45839702     0.00000000
 H      3   1   2     0.970925490063   104.86400436     4.10837617
 C      1   2   3     1.489996452726   122.37260179   147.35283953
 C      5   1   2     1.568330504290   118.65624957   285.06581125
 C      6   5   1     1.564287278927   118.38948113   168.23841826
 C      7   6   5     1.565022226456   115.13156022   163.06195834
 C      8   7   6     1.566583671382   114.21763865   163.66456105
 C      9   8   7     1.564153646402   113.64149341   161.81749991
 C     10   9   8     1.561080090365   114.51636816   162.49853055
 F      5   1   2     1.381165832964   108.96772863    45.33858690
 F      5   1   2     1.384733697528   110.51794064   163.67030744
 F      6   5   1     1.362889705217   107.88596219   290.59923255
 F      6   5   1     1.361749781635   107.90795562    46.93939246
 F      7   6   5     1.356661287783   108.58413614   284.26534576
 F      7   6   5     1.355232998265   109.18201704    42.29299117
 F      8   7   6     1.353286873008   108.66167954   284.63041459
 F      8   7   6     1.352779140750   109.15568906    42.97753383
 F      9   8   7     1.351687260780   109.32317519    41.22300646
 F      9   8   7     1.351280010137   108.69266879   282.84835274
 F     10   9   8     1.351691913230   109.59774096    42.00947727
 F     10   9   8     1.348525862100   108.87071593   282.99501307
 F     11  10   9     1.336906547602   110.81991369    50.43981205
 F     11  10   9     1.337175047994   108.77741850   169.85676687
 F     11  10   9     1.334529882942   110.96513327   289.08716228

---------------------------
INTERNAL COORDINATES (A.U.)
---------------------------
 C      0   0   0     0.000000000000     0.00000000     0.00000000
 O      1   0   0     2.405327135587     0.00000000     0.00000000
 O      1   2   0     2.675389771607   119.45839702     0.00000000
 H      3   1   2     1.834783272663   104.86400436     4.10837617
 C      1   2   3     2.815685236167   122.37260179   147.35283953
 C      5   1   2     2.963715140583   118.65624957   285.06581125
 C      6   5   1     2.956074551949   118.38948113   168.23841826
 C      7   6   5     2.957463401501   115.13156022   163.06195834
 C      8   7   6     2.960414104786   114.21763865   163.66456105
 C      9   8   7     2.955822023074   113.64149341   161.81749991
 C     10   9   8     2.950013843908   114.51636816   162.49853055
 F      5   1   2     2.610025169831   108.96772863    45.33858690
 F      5   1   2     2.616767456741   110.51794064   163.67030744
 F      6   5   1     2.575488293601   107.88596219   290.59923255
 F      6   5   1     2.573334150216   107.90795562    46.93939246
 F      7   6   5     2.563718290403   108.58413614   284.26534576
 F      7   6   5     2.561019214373   109.18201704    42.29299117
 F      8   7   6     2.557341570616   108.66167954   284.63041459
 F      8   7   6     2.556382095698   109.15568906    42.97753383
 F      9   8   7     2.554318741585   109.32317519    41.22300646
 F      9   8   7     2.553549149400   108.69266879   282.84835274
 F     10   9   8     2.554327533441   109.59774096    42.00947727
 F     10   9   8     2.548344563879   108.87071593   282.99501307
 F     11  10   9     2.526387241614   110.81991369    50.43981205
 F     11  10   9     2.526894633822   108.77741850   169.85676687
 F     11  10   9     2.521895996295   110.96513327   289.08716228

---------------------
BASIS SET INFORMATION
---------------------
There are 4 groups of distinct atoms

 Group   1 Type C   : 11s6p2d1f contracted to 5s3p2d1f pattern {62111/411/11/1}
 Group   2 Type O   : 11s6p2d1f contracted to 5s3p2d1f pattern {62111/411/11/1}
 Group   3 Type H   : 5s1p contracted to 3s1p pattern {311/1}
 Group   4 Type F   : 11s6p2d1f contracted to 5s3p2d1f pattern {62111/411/11/1}

Atom   0C    basis set group =>   1
Atom   1O    basis set group =>   2
Atom   2O    basis set group =>   2
Atom   3H    basis set group =>   3
Atom   4C    basis set group =>   1
Atom   5C    basis set group =>   1
Atom   6C    basis set group =>   1
Atom   7C    basis set group =>   1
Atom   8C    basis set group =>   1
Atom   9C    basis set group =>   1
Atom  10C    basis set group =>   1
Atom  11F    basis set group =>   4
Atom  12F    basis set group =>   4
Atom  13F    basis set group =>   4
Atom  14F    basis set group =>   4
Atom  15F    basis set group =>   4
Atom  16F    basis set group =>   4
Atom  17F    basis set group =>   4
Atom  18F    basis set group =>   4
Atom  19F    basis set group =>   4
Atom  20F    basis set group =>   4
Atom  21F    basis set group =>   4
Atom  22F    basis set group =>   4
Atom  23F    basis set group =>   4
Atom  24F    basis set group =>   4
Atom  25F    basis set group =>   4
---------------------------------
AUXILIARY/J BASIS SET INFORMATION
---------------------------------
There are 4 groups of distinct atoms

 Group   1 Type C   : 12s5p4d2f1g contracted to 6s4p3d1f1g pattern {711111/2111/211/2/1}
 Group   2 Type O   : 12s5p4d2f1g contracted to 6s4p3d1f1g pattern {711111/2111/211/2/1}
 Group   3 Type H   : 5s2p1d contracted to 3s1p1d pattern {311/2/1}
 Group   4 Type F   : 12s5p4d2f1g contracted to 6s4p3d1f1g pattern {711111/2111/211/2/1}

Atom   0C    basis set group =>   1
Atom   1O    basis set group =>   2
Atom   2O    basis set group =>   2
Atom   3H    basis set group =>   3
Atom   4C    basis set group =>   1
Atom   5C    basis set group =>   1
Atom   6C    basis set group =>   1
Atom   7C    basis set group =>   1
Atom   8C    basis set group =>   1
Atom   9C    basis set group =>   1
Atom  10C    basis set group =>   1
Atom  11F    basis set group =>   4
Atom  12F    basis set group =>   4
Atom  13F    basis set group =>   4
Atom  14F    basis set group =>   4
Atom  15F    basis set group =>   4
Atom  16F    basis set group =>   4
Atom  17F    basis set group =>   4
Atom  18F    basis set group =>   4
Atom  19F    basis set group =>   4
Atom  20F    basis set group =>   4
Atom  21F    basis set group =>   4
Atom  22F    basis set group =>   4
Atom  23F    basis set group =>   4
Atom  24F    basis set group =>   4
Atom  25F    basis set group =>   4


           ************************************************************
           *        Program running with 20 parallel MPI-processes    *
           *              working on a common directory               *
           ************************************************************
------------------------------------------------------------------------------
                             ORCA STARTUP CALCULATIONS
                           -- RI-GTO INTEGRALS CHOSEN --
------------------------------------------------------------------------------
------------------------------------------------------------------------------
                   ___                                                        
                  /   \      - P O W E R E D   B Y -                         
                 /     \                                                     
                 |  |  |   _    _      __       _____    __    __             
                 |  |  |  | |  | |    /  \     |  _  \  |  |  /  |          
                  \  \/   | |  | |   /    \    | | | |  |  | /  /          
                 / \  \   | |__| |  /  /\  \   | |_| |  |  |/  /          
                |  |  |   |  __  | /  /__\  \  |    /   |      \           
                |  |  |   | |  | | |   __   |  |    \   |  |\   \          
                \     /   | |  | | |  |  |  |  | |\  \  |  | \   \       
                 \___/    |_|  |_| |__|  |__|  |_| \__\ |__|  \__/        
                                                                              
                      - O R C A' S   B I G   F R I E N D -                    
                                      &                                       
                       - I N T E G R A L  F E E D E R -                       
                                                                              
 v1 FN, 2020, v2 2021, v3 2022-2024                                           
------------------------------------------------------------------------------


----------------------
SHARK INTEGRAL PACKAGE
----------------------

Number of atoms                             ...     26
Number of basis functions                   ...    781
Number of shells                            ...    279
Maximum angular momentum                    ...      3
Integral batch strategy                     ... SHARK/LIBINT Hybrid
RI-J (if used) integral strategy            ... SPLIT-RIJ (Revised 2003 algorithm where possible)
Printlevel                                  ...      1
Contraction scheme used                     ... SEGMENTED contraction
Prescreening option                         ... SCHWARTZ
   Thresh                                   ... 2.500e-11
   Tcut                                     ... 2.500e-12
   Tpresel                                  ... 2.500e-12 
Coulomb Range Separation                    ... NOT USED
Exchange Range Separation                   ... NOT USED
Multipole approximations                    ... NOT USED
Finite Nucleus Model                        ... NOT USED
CABS basis                                  ... NOT available
Auxiliary Coulomb fitting basis             ... AVAILABLE
   # of basis functions in Aux-J            ...   1236
   # of shells in Aux-J                     ...    380
   Maximum angular momentum in Aux-J        ...      4
Auxiliary J/K fitting basis                 ... NOT available
Auxiliary Correlation fitting basis         ... NOT available
Auxiliary 'external' fitting basis          ... NOT available

Checking pre-screening integrals            ... done (  0.0 sec) Dimension = 279
Check shell pair data                       ... done (  0.0 sec)
Shell pair information
Shell pair cut-off parameter TPreSel        ...   2.5e-12
Total number of shell pairs                 ...     39060
Shell pairs after pre-screening             ...     23859
Total number of primitive shell pairs       ...    128824
Primitive shell pairs kept                  ...     50525
          la=0 lb=0:   4547 shell pairs
          la=1 lb=0:   6527 shell pairs
          la=1 lb=1:   2260 shell pairs
          la=2 lb=0:   3542 shell pairs
          la=2 lb=1:   2591 shell pairs
          la=2 lb=2:    724 shell pairs
          la=3 lb=0:   1597 shell pairs
          la=3 lb=1:   1244 shell pairs
          la=3 lb=2:    670 shell pairs
          la=3 lb=3:    157 shell pairs

Calculating one electron integrals          ... done (  0.1 sec)
Calculating RI/J V-Matrix + Cholesky decomp.... done (  0.2 sec)
Calculating Nuclear repulsion               ... done (  0.0 sec) ENN=   2887.874269974818 Eh

Diagonalization of the overlap matrix:
Smallest eigenvalue                        ... 5.999e-05
Time for diagonalization                   ...    0.187 sec
Threshold for overlap eigenvalues          ... 1.000e-07
Number of eigenvalues below threshold      ... 0
Time for construction of square roots      ...    0.057 sec
Total time needed                          ...    0.252 sec

-------------------
DFT GRID GENERATION
-------------------

General Integration Accuracy     IntAcc      ... 4.388
Radial Grid Type                 RadialGrid  ... OptM3 with GC (2021)
Angular Grid (max. ang.)         AngularGrid ... 4 (Lebedev-302)
Angular grid pruning method      GridPruning ... 4 (adaptive)
Weight generation scheme         WeightScheme... mBecke (2022)
Basis function cutoff            BFCut       ... 1.0000e-11
Integration weight cutoff        WCut        ... 1.0000e-14
Partially contracted basis set               ... off
Rotationally invariant grid construction     ... off
Angular grids for H and He will be reduced by one unit

Total number of grid points                  ...   154714
Total number of batches                      ...     2428
Average number of points per batch           ...       63
Average number of grid points per atom       ...     5951

--------------------
COSX GRID GENERATION
--------------------

GRIDX 1
-------
General Integration Accuracy     IntAcc      ... 3.816
Radial Grid Type                 RadialGrid  ... OptM3 with GC (2021)
Angular Grid (max. ang.)         AngularGrid ... 1 (Lebedev-50)
Angular grid pruning method      GridPruning ... 4 (adaptive)
Weight generation scheme         WeightScheme... mBecke (2022)
Basis function cutoff            BFCut       ... 1.0000e-11
Integration weight cutoff        WCut        ... 1.0000e-14
Partially contracted basis set               ... on
Rotationally invariant grid construction     ... off
Angular grids for H and He will be reduced by one unit

Total number of grid points                  ...    19426
Total number of batches                      ...      163
Average number of points per batch           ...      119
Average number of grid points per atom       ...      747
UseSFitting                                  ... on

GRIDX 2
-------
General Integration Accuracy     IntAcc      ... 4.020
Radial Grid Type                 RadialGrid  ... OptM3 with GC (2021)
Angular Grid (max. ang.)         AngularGrid ... 2 (Lebedev-110)
Angular grid pruning method      GridPruning ... 4 (adaptive)
Weight generation scheme         WeightScheme... mBecke (2022)
Basis function cutoff            BFCut       ... 1.0000e-11
Integration weight cutoff        WCut        ... 1.0000e-14
Partially contracted basis set               ... on
Rotationally invariant grid construction     ... off
Angular grids for H and He will be reduced by one unit

Total number of grid points                  ...    45821
Total number of batches                      ...      375
Average number of points per batch           ...      122
Average number of grid points per atom       ...     1762
UseSFitting                                  ... on

GRIDX 3
-------
General Integration Accuracy     IntAcc      ... 4.338
Radial Grid Type                 RadialGrid  ... OptM3 with GC (2021)
Angular Grid (max. ang.)         AngularGrid ... 3 (Lebedev-194)
Angular grid pruning method      GridPruning ... 4 (adaptive)
Weight generation scheme         WeightScheme... mBecke (2022)
Basis function cutoff            BFCut       ... 1.0000e-11
Integration weight cutoff        WCut        ... 1.0000e-14
Partially contracted basis set               ... on
Rotationally invariant grid construction     ... off
Angular grids for H and He will be reduced by one unit

Total number of grid points                  ...   101438
Total number of batches                      ...      804
Average number of points per batch           ...      126
Average number of grid points per atom       ...     3901
UseSFitting                                  ... on
Initializing property integral containers    ... done (  0.1 sec)

SHARK setup successfully completed in   4.8 seconds

Maximum memory used throughout the entire STARTUP-calculation: 60.9 MB


           ************************************************************
           *        Program running with 20 parallel MPI-processes    *
           *              working on a common directory               *
           ************************************************************
-------------------------------------------------------------------------------
                                 ORCA GUESS
                   Start orbitals & Density for SCF / CASSCF
-------------------------------------------------------------------------------

------------
SCF SETTINGS
------------
Hamiltonian:
 Density Functional     Method          .... DFT(GTOs)
 Exchange Functional    Exchange        .... B88
   X-Alpha parameter    XAlpha          ....  0.666667
   Becke's b parameter  XBeta           ....  0.004200
 Correlation Functional Correlation     .... LYP
 LDA part of GGA corr.  LDAOpt          .... VWN-5
 Gradients option       PostSCFGGA      .... off
 Hybrid DFT is turned on
   Fraction HF Exchange ScalHFX         ....  0.200000
   Scaling of DF-GGA-X  ScalDFX         ....  0.720000
   Scaling of DF-GGA-C  ScalDFC         ....  0.810000
   Scaling of DF-LDA-C  ScalLDAC        ....  1.000000
   Perturbative correction              ....  0.000000
   NL short-range parameter             ....  4.800000
 RI-approximation to the Coulomb term is turned on
   Number of AuxJ basis functions       .... 1236
   RIJ-COSX (HFX calculated with COS-X)).... on


General Settings:
 Integral files         IntName         .... rf_mecn_opt_B3L_P_A-2
 Hartree-Fock type      HFTyp           .... UHF
 Total Charge           Charge          ....   -1
 Multiplicity           Mult            ....    2
 Number of Electrons    NEL             ....  201
 Basis Dimension        Dim             ....  781
 Nuclear Repulsion      ENuc            ....   2887.8742699748 Eh

Convergence Acceleration:
 AO-DIIS                CNVDIIS         .... on
   Start iteration      DIISMaxIt       ....     0
   Startup error        DIISStart       ....  0.200000
   # of expansion vecs  DIISMaxEq       ....     5
   Bias factor          DIISBfac        ....   1.050
   Max. coefficient     DIISMaxC        ....  10.000
 MO-DIIS                CNVKDIIS        .... off
 Trust-Rad. Augm. Hess. CNVTRAH         .... auto
   Auto Start mean grad. ratio tolernc. ....  1.125000
   Auto Start start iteration           ....    50
   Auto Start num. interpolation iter.  ....    10
   Max. Number of Micro iterations      ....    24
   Max. Number of Macro iterations      .... Maxiter - #DIIS iter
   Number of Davidson start vectors     ....     2
   Converg. threshold    (grad. norm)   ....   1.000e-05
   Grad. Scal. Fac. for Micro threshold ....   0.100
   Minimum threshold for Micro iter.    ....   1.000e-02
   NR start threshold (gradient norm)   ....   1.000e-04
   Initial trust radius                 ....   0.400
   Minimum AH scaling param. (alpha)    ....   1.000
   Maximum AH scaling param. (alpha)    .... 1000.000
   Quad. conv. algorithm                .... NR
   White noise on init. David. guess    .... on
   Maximum white noise                  ....   0.010
   Pseudo random numbers                .... off
   Inactive MOs                         .... canonical
   Orbital update algorithm             .... Taylor
   Preconditioner                       .... Diag
   Full preconditioner red. dimension   ....   250
 SOSCF                  CNVSOSCF        .... on
   Start iteration      SOSCFMaxIt      ....   150
   Startup grad/error   SOSCFStart      ....  0.001000
   Hessian update       SOSCFHessUp     .... L-BFGS
 Level Shifting         CNVShift        .... on
   Level shift para.    LevelShift      ....    0.2500
   Turn off err/grad.   ShiftErr        ....    0.0000
 Zerner damping         CNVZerner       .... off
 Static damping         CNVDamp         .... on
   Fraction old density DampFac         ....    0.8500
   Max. Damping (<1)    DampMax         ....    0.9800
   Min. Damping (>=0)   DampMin         ....    0.0000
   Turn off err/grad.   DampErr         ....    0.0300

SCF Procedure:
 Maximum # iterations   MaxIter         ....  1500
 SCF integral mode      SCFMode         .... Direct
   Integral package                     .... SHARK and LIBINT hybrid scheme
 Reset frequency        DirectResetFreq ....    20
 Integral Threshold     Thresh          ....  2.500e-11 Eh
 Primitive CutOff       TCut            ....  2.500e-12 Eh

Convergence Tolerance:
 Convergence Check Mode ConvCheckMode   .... Total+1el-Energy
 Convergence forced     ConvForced      .... 0
 Energy Change          TolE            ....  1.000e-08 Eh
 1-El. energy change                    ....  1.000e-05 Eh
 Orbital Gradient       TolG            ....  1.000e-05
 Orbital Rotation angle TolX            ....  1.000e-05
 DIIS Error             TolErr          ....  5.000e-07

------------------------------
INITIAL GUESS: MODEL POTENTIAL
------------------------------
Loading Hartree-Fock densities                     ... done
Calculating cut-offs                               ... done
Initializing the effective Hamiltonian             ... done
Setting up the integral package (SHARK)            ... done
Starting the Coulomb interaction                   ... done (   0.4 sec)
Making the grid                                    ... done (   0.6 sec)
Mapping shells                                     ... done
Starting the XC term evaluation                    ... done (   0.1 sec)
  promolecular density results
     # of electrons  =    199.999329166
     EX              =   -208.622965189
     EC              =     -7.525401433
     EX+EC           =   -216.148366622
Transforming the Hamiltonian                       ... done (   0.1 sec)
Diagonalizing the Hamiltonian                      ... done (   0.2 sec)
Back transforming the eigenvectors                 ... done (   0.1 sec)
Now organizing SCF variables                       ... done
                      ------------------
                      INITIAL GUESS DONE (   1.5 sec)
                      ------------------
             **** ENERGY FILE WAS UPDATED (rf_mecn_opt_B3L_P_A-2.en.tmp) ****
Finished Guess after   2.6 sec
Maximum memory used throughout the entire GUESS-calculation: 49.4 MB


           ************************************************************
           *        Program running with 20 parallel MPI-processes    *
           *              working on a common directory               *
           ************************************************************

-------------------------------------------------------------------------------------------
                                      ORCA LEAN-SCF
                              memory conserving SCF solver
-------------------------------------------------------------------------------------------

--------------------
CPCM SOLVATION MODEL
--------------------
CPCM parameters:
  Epsilon                                         ...      35.6880
  Refrac                                          ...       1.3442
  Rsolv                                           ...       1.3000
  Surface type                                    ... GAUSSIAN VDW
  Discretization scheme                           ... Constant charge density
    Threshold for H atoms                         ...       5.0000 (charges/Ang^2)
    Threshold for non-H atoms                     ...       5.0000 (charges/Ang^2)
  Epsilon function type                           ...         CPCM
Solvent:                                          ... ACETONITRILE
SMD-CDS solvent descriptors:
  Soln                                            ...       1.3442
  Soln25                                          ...       1.3416
  Sola                                            ...       0.0700
  Solb                                            ...       0.3200
  Solg                                            ...      41.2500
  Solc                                            ...       0.0000
  Solh                                            ...       0.0000
Radii:
  Scheme                                          ... Element-dependent radii
  Radius for C  used is    3.4960 Bohr (=   1.8500 Ang.)
  Radius for O  used is    4.0969 Bohr (=   2.1680 Ang.)
  Radius for H  used is    2.2677 Bohr (=   1.2000 Ang.)
  Radius for F  used is    3.2692 Bohr (=   1.7300 Ang.)
Calculating surface                               ...        done! (  0.0s)
Cavity surface points                             ...         2175
Cavity Volume                                     ...    2179.2438
Cavity Surface-area                               ...    1119.3936
Calculating surface distance matrix               ...        done! (  0.0s)
Performing Cholesky decomposition & store         ...        done! (  0.1s)
Overall time for CPCM initialization              ...                 0.1s

----------------------------------------D-I-I-S--------------------------------------------
Iteration    Energy (Eh)           Delta-E    RMSDP     MaxDP     DIISErr   Damp  Time(sec)
-------------------------------------------------------------------------------------------
               ***  Starting incremental Fock matrix formation  ***
    1    -1953.1151728074673883     0.00e+00  6.03e-04  1.63e-01  1.84e-01  0.850   8.1
Warning: op=0 Small HOMO/LUMO gap (  -0.015) - skipping pre-diagonalization
         Will do a full diagonalization
    2    -1953.2902498136973009    -1.75e-01  9.63e-04  2.72e-01  1.25e-01  0.850   5.4
                               ***Turning on AO-DIIS***
    3    -1953.3853493320166308    -9.51e-02  6.15e-04  1.78e-01  6.98e-02  0.850   4.8
    4    -1953.4416194787499990    -5.63e-02  3.38e-04  1.00e-01  5.25e-02  0.850   4.5
    5    -1953.4815922513043915    -4.00e-02  1.82e-04  5.43e-02  4.52e-02  0.850   4.5
    6    -1953.5133004712979528    -3.17e-02  1.09e-04  3.19e-02  3.99e-02  0.850   4.5
    7    -1953.5397237674424105    -2.64e-02  8.50e-05  2.42e-02  3.46e-02  0.850   4.3
    8    -1953.5621172510182078    -2.24e-02  8.14e-05  2.41e-02  2.86e-02  0.850   4.2
    9    -1953.5808511949298918    -1.87e-02  5.10e-04  1.57e-01  2.37e-02  0.000   4.1
   10    -1953.6795499173822463    -9.87e-02  6.19e-05  1.15e-02  3.61e-03  0.000   4.4
   11    -1953.6797355658136439    -1.86e-04  4.13e-05  7.22e-03  1.75e-03  0.000   4.2
   12    -1953.6797943846995622    -5.88e-05  2.89e-05  4.26e-03  1.19e-03  0.000   4.0
                              *** Initializing SOSCF ***
---------------------------------------S-O-S-C-F--------------------------------------
Iteration    Energy (Eh)           Delta-E    RMSDP     MaxDP     MaxGrad    Time(sec)
--------------------------------------------------------------------------------------
   13    -1953.6798225353859380    -2.82e-05  2.59e-05  4.54e-03  2.60e-04     4.5
               *** Restarting incremental Fock matrix formation ***
   14    -1953.6798091930149894     1.33e-05  5.77e-05  8.52e-03  1.16e-03     7.5
   15    -1953.6798264270109939    -1.72e-05  3.98e-05  1.04e-02  1.35e-04     5.9
   16    -1953.6798267983313053    -3.71e-07  1.24e-05  3.30e-03  1.69e-04     5.7
   17    -1953.6798296423521606    -2.84e-06  4.94e-06  1.46e-03  5.06e-05     5.5
   18    -1953.6798295532134944     8.91e-08  2.80e-06  9.24e-04  6.97e-05     4.9
   19    -1953.6798297674586138    -2.14e-07  2.07e-06  6.11e-04  1.40e-05     4.3
   20    -1953.6798298018884452    -3.44e-08  6.94e-07  1.95e-04  1.18e-05     3.9
   21    -1953.6798297840850864     1.78e-08  2.58e-07  8.15e-05  8.39e-07     3.9
                  *** Gradient check signals convergence ***

               *****************************************************
               *                     SUCCESS                       *
               *           SCF CONVERGED AFTER  21 CYCLES          *
               *****************************************************

Recomputing exchange energy using gridx3       ... done (    9.803 sec)
Old exchange energy                            :    -41.876210808 Eh
New exchange energy                            :    -41.876222522 Eh
Exchange energy change after final integration :     -0.000011714 Eh
Total energy after final integration           :  -1953.679841498 Eh

SMD CDS free energy correction energy :                 3.55544     Kcal/mol
Total Energy after SMD CDS correction =             -1953.674175543 Eh
             **** ENERGY FILE WAS UPDATED (rf_mecn_opt_B3L_P_A-2.en.tmp) ****

----------------
TOTAL SCF ENERGY
----------------

Total Energy       :      -1953.67417554272129 Eh          -53162.17703 eV

Components:
Nuclear Repulsion  :       2887.87426997481816 Eh           78583.05397 eV
Electronic Energy  :      -4841.47312551365212 Eh         -131743.18144 eV
One Electron Energy:      -8492.07585186100550 Eh         -231081.13187 eV
Two Electron Energy:       3650.60272634735338 Eh           99337.95043 eV
CPCM Dielectric    :         -0.08097424525153 Eh              -2.20342 eV
SMD CDS (Gcds)     :          0.00566595502630 Eh               0.15418 eV

Virial components:
Potential Energy   :      -3900.68810194394609 Eh         -106143.11947 eV
Kinetic Energy     :       1947.01392640122458 Eh           52980.94244 eV
Virial Ratio       :          2.00342075064343

DFT components:
N(Alpha)           :      101.000015456837 electrons
N(Beta)            :       99.999976952517 electrons
N(Total)           :      200.999992409355 electrons
E(X)               :     -166.897884644588 Eh       
E(C)               :       -8.826530374968 Eh       
E(XC)              :     -175.724415019556 Eh       

CPCM Solvation Model Properties:
Surface-charge          :          0.98791632794547
Corrected charge        :          1.00000000000000
Outlying charge corr.   :          0.00000794134301 Eh               0.00022 eV
Free-energy (cav+disp)  :          0.00566595502630 Eh               0.15418 eV

---------------
SCF CONVERGENCE
---------------

  Last Energy change         ...   -1.7803e-08  Tolerance :   1.0000e-08
  Last MAX-Density change    ...    8.1506e-05  Tolerance :   1.0000e-07
  Last RMS-Density change    ...    2.5810e-07  Tolerance :   5.0000e-09
  Last DIIS Error            ...    2.6028e-04  Tolerance :   5.0000e-07
  Last Orbital Gradient      ...    8.3894e-07  Tolerance :   1.0000e-05
  Last Orbital Rotation      ...    1.0577e-05  Tolerance :   1.0000e-05


----------------------
UHF SPIN CONTAMINATION
----------------------

Warning: in a DFT calculation there is little theoretical justification to 
         calculate <S**2> as in Hartree-Fock theory. We will do it anyways
         but you should keep in mind that the values have only limited relevance

Expectation value of <S**2>     :     0.753547
Ideal value S*(S+1) for S=0.5   :     0.750000
Deviation                       :     0.003547

----------------
ORBITAL ENERGIES
----------------
                 SPIN UP ORBITALS
  NO   OCC          E(Eh)            E(eV) 
   0   1.0000     -24.744314      -673.3270 
   1   1.0000     -24.743090      -673.2937 
   2   1.0000     -24.742334      -673.2731 
   3   1.0000     -24.741959      -673.2629 
   4   1.0000     -24.740933      -673.2350 
   5   1.0000     -24.740457      -673.2221 
   6   1.0000     -24.739973      -673.2089 
   7   1.0000     -24.735832      -673.0962 
   8   1.0000     -24.735016      -673.0740 
   9   1.0000     -24.727595      -672.8721 
  10   1.0000     -24.725590      -672.8175 
  11   1.0000     -24.712683      -672.4663 
  12   1.0000     -24.710344      -672.4026 
  13   1.0000     -24.687137      -671.7711 
  14   1.0000     -24.683817      -671.6808 
  15   1.0000     -19.114415      -520.1297 
  16   1.0000     -19.051187      -518.4091 
  17   1.0000     -10.460711      -284.6504 
  18   1.0000     -10.405944      -283.1601 
  19   1.0000     -10.405151      -283.1386 
  20   1.0000     -10.399158      -282.9755 
  21   1.0000     -10.387965      -282.6709 
  22   1.0000     -10.367281      -282.1081 
  23   1.0000     -10.337062      -281.2858 
  24   1.0000     -10.225053      -278.2378 
  25   1.0000      -1.351693       -36.7814 
  26   1.0000      -1.324647       -36.0455 
  27   1.0000      -1.308830       -35.6151 
  28   1.0000      -1.302786       -35.4506 
  29   1.0000      -1.294358       -35.2213 
  30   1.0000      -1.277860       -34.7723 
  31   1.0000      -1.264882       -34.4192 
  32   1.0000      -1.258988       -34.2588 
  33   1.0000      -1.256489       -34.1908 
  34   1.0000      -1.249504       -34.0007 
  35   1.0000      -1.245903       -33.9027 
  36   1.0000      -1.244445       -33.8631 
  37   1.0000      -1.236980       -33.6599 
  38   1.0000      -1.220925       -33.2231 
  39   1.0000      -1.192094       -32.4385 
  40   1.0000      -1.027911       -27.9709 
  41   1.0000      -0.938973       -25.5508 
  42   1.0000      -0.844032       -22.9673 
  43   1.0000      -0.819241       -22.2927 
  44   1.0000      -0.789234       -21.4761 
  45   1.0000      -0.755874       -20.5684 
  46   1.0000      -0.718498       -19.5513 
  47   1.0000      -0.689640       -18.7661 
  48   1.0000      -0.668906       -18.2019 
  49   1.0000      -0.647434       -17.6176 
  50   1.0000      -0.643202       -17.5024 
  51   1.0000      -0.636369       -17.3165 
  52   1.0000      -0.625563       -17.0224 
  53   1.0000      -0.620375       -16.8812 
  54   1.0000      -0.619613       -16.8605 
  55   1.0000      -0.609575       -16.5874 
  56   1.0000      -0.604663       -16.4537 
  57   1.0000      -0.597022       -16.2458 
  58   1.0000      -0.590307       -16.0631 
  59   1.0000      -0.584326       -15.9003 
  60   1.0000      -0.579367       -15.7654 
  61   1.0000      -0.568902       -15.4806 
  62   1.0000      -0.565258       -15.3815 
  63   1.0000      -0.540397       -14.7050 
  64   1.0000      -0.514563       -14.0020 
  65   1.0000      -0.509950       -13.8764 
  66   1.0000      -0.505070       -13.7437 
  67   1.0000      -0.500727       -13.6255 
  68   1.0000      -0.498534       -13.5658 
  69   1.0000      -0.498107       -13.5542 
  70   1.0000      -0.490379       -13.3439 
  71   1.0000      -0.486214       -13.2306 
  72   1.0000      -0.483002       -13.1432 
  73   1.0000      -0.477676       -12.9982 
  74   1.0000      -0.475276       -12.9329 
  75   1.0000      -0.471239       -12.8231 
  76   1.0000      -0.463331       -12.6079 
  77   1.0000      -0.462173       -12.5764 
  78   1.0000      -0.458415       -12.4741 
  79   1.0000      -0.451523       -12.2866 
  80   1.0000      -0.450461       -12.2577 
  81   1.0000      -0.448391       -12.2013 
  82   1.0000      -0.444885       -12.1059 
  83   1.0000      -0.441251       -12.0071 
  84   1.0000      -0.440626       -11.9900 
  85   1.0000      -0.439125       -11.9492 
  86   1.0000      -0.437439       -11.9033 
  87   1.0000      -0.430514       -11.7149 
  88   1.0000      -0.425972       -11.5913 
  89   1.0000      -0.420663       -11.4468 
  90   1.0000      -0.416365       -11.3299 
  91   1.0000      -0.408794       -11.1238 
  92   1.0000      -0.402033       -10.9399 
  93   1.0000      -0.395640       -10.7659 
  94   1.0000      -0.384883       -10.4732 
  95   1.0000      -0.368827       -10.0363 
  96   1.0000      -0.348291        -9.4775 
  97   1.0000      -0.330397        -8.9906 
  98   1.0000      -0.284244        -7.7347 
  99   1.0000      -0.235856        -6.4180 
 100   1.0000      -0.103237        -2.8092 
 101   0.0000      -0.004148        -0.1129 
 102   0.0000       0.009448         0.2571 
 103   0.0000       0.042434         1.1547 
 104   0.0000       0.054675         1.4878 
 105   0.0000       0.073257         1.9934 
 106   0.0000       0.087535         2.3819 
 107   0.0000       0.099077         2.6960 
 108   0.0000       0.105491         2.8706 
 109   0.0000       0.124978         3.4008 
 110   0.0000       0.131288         3.5725 
 111   0.0000       0.142296         3.8721 

                 SPIN DOWN ORBITALS
  NO   OCC          E(Eh)            E(eV) 
   0   1.0000     -24.744313      -673.3270 
   1   1.0000     -24.743089      -673.2937 
   2   1.0000     -24.742318      -673.2727 
   3   1.0000     -24.741948      -673.2626 
   4   1.0000     -24.740930      -673.2349 
   5   1.0000     -24.740448      -673.2218 
   6   1.0000     -24.739949      -673.2082 
   7   1.0000     -24.735814      -673.0957 
   8   1.0000     -24.734970      -673.0727 
   9   1.0000     -24.727557      -672.8710 
  10   1.0000     -24.725509      -672.8153 
  11   1.0000     -24.712619      -672.4646 
  12   1.0000     -24.710247      -672.4000 
  13   1.0000     -24.686640      -671.7576 
  14   1.0000     -24.683190      -671.6638 
  15   1.0000     -19.112299      -520.0721 
  16   1.0000     -19.043680      -518.2049 
  17   1.0000     -10.460688      -284.6498 
  18   1.0000     -10.405897      -283.1589 
  19   1.0000     -10.405035      -283.1354 
  20   1.0000     -10.398921      -282.9690 
  21   1.0000     -10.387373      -282.6548 
  22   1.0000     -10.366073      -282.0752 
  23   1.0000     -10.336167      -281.2614 
  24   1.0000     -10.217203      -278.0242 
  25   1.0000      -1.351672       -36.7809 
  26   1.0000      -1.324530       -36.0423 
  27   1.0000      -1.308702       -35.6116 
  28   1.0000      -1.302706       -35.4484 
  29   1.0000      -1.294143       -35.2154 
  30   1.0000      -1.277499       -34.7625 
  31   1.0000      -1.264865       -34.4187 
  32   1.0000      -1.258964       -34.2581 
  33   1.0000      -1.256443       -34.1896 
  34   1.0000      -1.249448       -33.9992 
  35   1.0000      -1.245656       -33.8960 
  36   1.0000      -1.243200       -33.8292 
  37   1.0000      -1.236797       -33.6550 
  38   1.0000      -1.220699       -33.2169 
  39   1.0000      -1.190830       -32.4041 
  40   1.0000      -1.020423       -27.7671 
  41   1.0000      -0.926679       -25.2162 
  42   1.0000      -0.843412       -22.9504 
  43   1.0000      -0.817699       -22.2507 
  44   1.0000      -0.786667       -21.4063 
  45   1.0000      -0.752462       -20.4755 
  46   1.0000      -0.715485       -19.4693 
  47   1.0000      -0.688053       -18.7229 
  48   1.0000      -0.666803       -18.1446 
  49   1.0000      -0.647315       -17.6143 
  50   1.0000      -0.642833       -17.4924 
  51   1.0000      -0.636328       -17.3154 
  52   1.0000      -0.624414       -16.9912 
  53   1.0000      -0.619817       -16.8661 
  54   1.0000      -0.618355       -16.8263 
  55   1.0000      -0.606643       -16.5076 
  56   1.0000      -0.604475       -16.4486 
  57   1.0000      -0.595318       -16.1994 
  58   1.0000      -0.590039       -16.0558 
  59   1.0000      -0.580950       -15.8085 
  60   1.0000      -0.579017       -15.7559 
  61   1.0000      -0.567738       -15.4489 
  62   1.0000      -0.562745       -15.3131 
  63   1.0000      -0.538955       -14.6657 
  64   1.0000      -0.514505       -14.0004 
  65   1.0000      -0.509908       -13.8753 
  66   1.0000      -0.505007       -13.7419 
  67   1.0000      -0.500168       -13.6103 
  68   1.0000      -0.498136       -13.5550 
  69   1.0000      -0.496445       -13.5090 
  70   1.0000      -0.489770       -13.3273 
  71   1.0000      -0.485694       -13.2164 
  72   1.0000      -0.482896       -13.1403 
  73   1.0000      -0.477571       -12.9954 
  74   1.0000      -0.475018       -12.9259 
  75   1.0000      -0.470982       -12.8161 
  76   1.0000      -0.463129       -12.6024 
  77   1.0000      -0.462051       -12.5731 
  78   1.0000      -0.457502       -12.4492 
  79   1.0000      -0.451489       -12.2856 
  80   1.0000      -0.450332       -12.2542 
  81   1.0000      -0.447895       -12.1879 
  82   1.0000      -0.444748       -12.1022 
  83   1.0000      -0.441170       -12.0048 
  84   1.0000      -0.440322       -11.9818 
  85   1.0000      -0.437236       -11.8978 
  86   1.0000      -0.433130       -11.7861 
  87   1.0000      -0.429967       -11.7000 
  88   1.0000      -0.425398       -11.5757 
  89   1.0000      -0.419449       -11.4138 
  90   1.0000      -0.415206       -11.2983 
  91   1.0000      -0.404802       -11.0152 
  92   1.0000      -0.400175       -10.8893 
  93   1.0000      -0.393940       -10.7197 
  94   1.0000      -0.370254       -10.0751 
  95   1.0000      -0.362612        -9.8672 
  96   1.0000      -0.338769        -9.2184 
  97   1.0000      -0.323760        -8.8100 
  98   1.0000      -0.252973        -6.8837 
  99   1.0000      -0.229582        -6.2472 
 100   0.0000      -0.016616        -0.4521 
 101   0.0000       0.007063         0.1922 
 102   0.0000       0.016822         0.4577 
 103   0.0000       0.046205         1.2573 
 104   0.0000       0.057963         1.5773 
 105   0.0000       0.076532         2.0825 
 106   0.0000       0.091221         2.4823 
 107   0.0000       0.099802         2.7158 
 108   0.0000       0.109303         2.9743 
 109   0.0000       0.125621         3.4183 
 110   0.0000       0.133317         3.6277 
*Only the first 10 virtual orbitals were printed.

                    ********************************
                    * MULLIKEN POPULATION ANALYSIS *
                    ********************************

--------------------------------------------
MULLIKEN ATOMIC CHARGES AND SPIN POPULATIONS
--------------------------------------------
   0 C :   -0.045401    0.547800
   1 O :   -0.550976    0.246147
   2 O :   -0.484161    0.034448
   3 H :    0.306570    0.015351
   4 C :    0.458998    0.010218
   5 C :    0.273121    0.093747
   6 C :    0.327635    0.020096
   7 C :    0.330629    0.013125
   8 C :    0.312835    0.004552
   9 C :    0.322381    0.002195
  10 C :    0.476065    0.000834
  11 F :   -0.229593    0.002044
  12 F :   -0.232491    0.003832
  13 F :   -0.203506    0.000982
  14 F :   -0.201563    0.002057
  15 F :   -0.186225    0.000274
  16 F :   -0.183338    0.000603
  17 F :   -0.176393    0.000217
  18 F :   -0.175998    0.000733
  19 F :   -0.171739    0.000252
  20 F :   -0.171397    0.000130
  21 F :   -0.167644    0.000102
  22 F :   -0.164416    0.000056
  23 F :   -0.155956    0.000001
  24 F :   -0.153975    0.000200
  25 F :   -0.153461    0.000006
Sum of atomic charges         :   -1.0000000
Sum of atomic spin populations:    1.0000000

-----------------------------------------------------
MULLIKEN REDUCED ORBITAL CHARGES AND SPIN POPULATIONS
-----------------------------------------------------
CHARGE
  0 C s       :     3.213120  s :     3.213120
      pz      :     0.862145  p :     2.628624
      px      :     0.928015
      py      :     0.838464
      dz2     :     0.036634  d :     0.183160
      dxz     :     0.037390
      dyz     :     0.052311
      dx2y2   :     0.031915
      dxy     :     0.024911
      f0      :     0.003706  f :     0.020497
      f+1     :     0.003343
      f-1     :     0.004136
      f+2     :     0.002939
      f-2     :     0.002259
      f+3     :     0.002353
      f-3     :     0.001761

  1 O s       :     3.791603  s :     3.791603
      pz      :     1.389921  p :     4.730263
      px      :     1.643047
      py      :     1.697294
      dz2     :     0.010304  d :     0.027484
      dxz     :     0.007388
      dyz     :     0.006762
      dx2y2   :     0.001415
      dxy     :     0.001615
      f0      :     0.000519  f :     0.001627
      f+1     :     0.000363
      f-1     :     0.000339
      f+2     :     0.000167
      f-2     :     0.000200
      f+3     :     0.000019
      f-3     :     0.000020

  2 O s       :     3.763888  s :     3.763888
      pz      :     1.584730  p :     4.690653
      px      :     1.730459
      py      :     1.375464
      dz2     :     0.004765  d :     0.028092
      dxz     :     0.005421
      dyz     :     0.009468
      dx2y2   :     0.005148
      dxy     :     0.003291
      f0      :     0.000033  f :     0.001527
      f+1     :     0.000186
      f-1     :     0.000235
      f+2     :     0.000164
      f-2     :     0.000353
      f+3     :     0.000282
      f-3     :     0.000274

  3 H s       :     0.648397  s :     0.648397
      pz      :     0.016183  p :     0.045033
      px      :     0.016279
      py      :     0.012571

  4 C s       :     2.969864  s :     2.969864
      pz      :     0.669813  p :     2.276625
      px      :     0.934827
      py      :     0.671986
      dz2     :     0.053102  d :     0.268781
      dxz     :     0.047292
      dyz     :     0.061473
      dx2y2   :     0.057610
      dxy     :     0.049303
      f0      :     0.004561  f :     0.025732
      f+1     :     0.004776
      f-1     :     0.005503
      f+2     :     0.002745
      f-2     :     0.001134
      f+3     :     0.004401
      f-3     :     0.002613

  5 C s       :     3.188546  s :     3.188546
      pz      :     0.626509  p :     2.234168
      px      :     0.924808
      py      :     0.682850
      dz2     :     0.055383  d :     0.277104
      dxz     :     0.054654
      dyz     :     0.065370
      dx2y2   :     0.046379
      dxy     :     0.055318
      f0      :     0.003955  f :     0.027062
      f+1     :     0.005067
      f-1     :     0.007401
      f+2     :     0.002219
      f-2     :     0.001692
      f+3     :     0.004216
      f-3     :     0.002511

  6 C s       :     3.145292  s :     3.145292
      pz      :     0.593888  p :     2.219400
      px      :     0.914837
      py      :     0.710675
      dz2     :     0.067331  d :     0.280166
      dxz     :     0.058909
      dyz     :     0.060021
      dx2y2   :     0.039210
      dxy     :     0.054695
      f0      :     0.004240  f :     0.027507
      f+1     :     0.004607
      f-1     :     0.007192
      f+2     :     0.002647
      f-2     :     0.003498
      f+3     :     0.002961
      f-3     :     0.002361

  7 C s       :     3.148801  s :     3.148801
      pz      :     0.577943  p :     2.209464
      px      :     0.914119
      py      :     0.717402
      dz2     :     0.076626  d :     0.283337
      dxz     :     0.060128
      dyz     :     0.054024
      dx2y2   :     0.035839
      dxy     :     0.056720
      f0      :     0.005768  f :     0.027770
      f+1     :     0.003970
      f-1     :     0.004992
      f+2     :     0.003800
      f-2     :     0.005000
      f+3     :     0.002203
      f-3     :     0.002037

  8 C s       :     3.151351  s :     3.151351
      pz      :     0.582059  p :     2.224050
      px      :     0.925206
      py      :     0.716785
      dz2     :     0.076228  d :     0.283900
      dxz     :     0.060346
      dyz     :     0.055605
      dx2y2   :     0.034359
      dxy     :     0.057362
      f0      :     0.005583  f :     0.027864
      f+1     :     0.003998
      f-1     :     0.005363
      f+2     :     0.003680
      f-2     :     0.004896
      f+3     :     0.002282
      f-3     :     0.002063

  9 C s       :     3.130621  s :     3.130621
      pz      :     0.603415  p :     2.240796
      px      :     0.930304
      py      :     0.707077
      dz2     :     0.063740  d :     0.278280
      dxz     :     0.059676
      dyz     :     0.064961
      dx2y2   :     0.033855
      dxy     :     0.056048
      f0      :     0.004009  f :     0.027921
      f+1     :     0.004773
      f-1     :     0.007868
      f+2     :     0.002454
      f-2     :     0.003137
      f+3     :     0.003204
      f-3     :     0.002476

 10 C s       :     3.025515  s :     3.025515
      pz      :     0.641862  p :     2.114972
      px      :     0.810715
      py      :     0.662395
      dz2     :     0.066884  d :     0.343257
      dxz     :     0.067532
      dyz     :     0.081702
      dx2y2   :     0.063845
      dxy     :     0.063295
      f0      :     0.004555  f :     0.040191
      f+1     :     0.007286
      f-1     :     0.009980
      f+2     :     0.003615
      f-2     :     0.004026
      f+3     :     0.006699
      f-3     :     0.004031

 11 F s       :     3.908810  s :     3.908810
      pz      :     1.894060  p :     5.305969
      px      :     1.918741
      py      :     1.493167
      dz2     :     0.002000  d :     0.014200
      dxz     :     0.000223
      dyz     :     0.003107
      dx2y2   :     0.005671
      dxy     :     0.003199
      f0      :     0.000055  f :     0.000615
      f+1     :     0.000009
      f-1     :     0.000116
      f+2     :     0.000099
      f-2     :     0.000013
      f+3     :     0.000128
      f-3     :     0.000194

 12 F s       :     3.907674  s :     3.907674
      pz      :     1.486780  p :     5.310127
      px      :     1.923295
      py      :     1.900052
      dz2     :     0.007554  d :     0.014082
      dxz     :     0.003174
      dyz     :     0.002909
      dx2y2   :     0.000297
      dxy     :     0.000148
      f0      :     0.000310  f :     0.000608
      f+1     :     0.000133
      f-1     :     0.000142
      f+2     :     0.000014
      f-2     :     0.000007
      f+3     :     0.000001
      f-3     :     0.000001

 13 F s       :     3.913621  s :     3.913621
      pz      :     1.856847  p :     5.273672
      px      :     1.916253
      py      :     1.500572
      dz2     :     0.002008  d :     0.015544
      dxz     :     0.000416
      dyz     :     0.004321
      dx2y2   :     0.005422
      dxy     :     0.003377
      f0      :     0.000071  f :     0.000669
      f+1     :     0.000006
      f-1     :     0.000113
      f+2     :     0.000153
      f-2     :     0.000034
      f+3     :     0.000122
      f-3     :     0.000171

 14 F s       :     3.912905  s :     3.912905
      pz      :     1.459998  p :     5.272361
      px      :     1.915505
      py      :     1.896859
      dz2     :     0.008475  d :     0.015619
      dxz     :     0.003678
      dyz     :     0.003091
      dx2y2   :     0.000232
      dxy     :     0.000142
      f0      :     0.000362  f :     0.000678
      f+1     :     0.000159
      f-1     :     0.000142
      f+2     :     0.000007
      f-2     :     0.000005
      f+3     :     0.000001
      f-3     :     0.000001

 15 F s       :     3.915145  s :     3.915145
      pz      :     1.761877  p :     5.254371
      px      :     1.906653
      py      :     1.585841
      dz2     :     0.002185  d :     0.016020
      dxz     :     0.001210
      dyz     :     0.005981
      dx2y2   :     0.003770
      dxy     :     0.002873
      f0      :     0.000078  f :     0.000688
      f+1     :     0.000007
      f-1     :     0.000146
      f+2     :     0.000197
      f-2     :     0.000091
      f+3     :     0.000080
      f-3     :     0.000089

 16 F s       :     3.913741  s :     3.913741
      pz      :     1.484160  p :     5.252817
      px      :     1.912088
      py      :     1.856570
      dz2     :     0.007541  d :     0.016085
      dxz     :     0.003456
      dyz     :     0.004171
      dx2y2   :     0.000431
      dxy     :     0.000486
      f0      :     0.000288  f :     0.000694
      f+1     :     0.000128
      f-1     :     0.000207
      f+2     :     0.000029
      f-2     :     0.000038
      f+3     :     0.000002
      f-3     :     0.000002

 17 F s       :     3.916187  s :     3.916187
      pz      :     1.651961  p :     5.243214
      px      :     1.908445
      py      :     1.682808
      dz2     :     0.003423  d :     0.016293
      dxz     :     0.002041
      dyz     :     0.006611
      dx2y2   :     0.002242
      dxy     :     0.001977
      f0      :     0.000088  f :     0.000699
      f+1     :     0.000028
      f-1     :     0.000236
      f+2     :     0.000170
      f-2     :     0.000105
      f+3     :     0.000036
      f-3     :     0.000035

 18 F s       :     3.915758  s :     3.915758
      pz      :     1.556732  p :     5.243234
      px      :     1.907209
      py      :     1.779293
      dz2     :     0.005393  d :     0.016306
      dxz     :     0.002902
      dyz     :     0.005732
      dx2y2   :     0.001094
      dxy     :     0.001185
[...]

 17 F s       :     0.000025  s :     0.000025
      pz      :     0.000360  p :     0.000326
      px      :    -0.000037
      py      :     0.000004
      dz2     :     0.000034  d :     0.000110
      dxz     :     0.000004
      dyz     :     0.000006
      dx2y2   :     0.000063
      dxy     :     0.000003
      f0      :     0.000001  f :     0.000005
      f+1     :     0.000000
      f-1     :     0.000001
      f+2     :     0.000001
      f-2     :     0.000000
      f+3     :     0.000000
      f-3     :     0.000002

 18 F s       :     0.000244  s :     0.000244
      pz      :     0.000589  p :     0.000429
      px      :    -0.000063
      py      :    -0.000097
      dz2     :     0.000016  d :     0.000048
      dxz     :     0.000001
      dyz     :    -0.000004
      dx2y2   :     0.000039
      dxy     :    -0.000004
      f0      :     0.000001  f :     0.000002
      f+1     :     0.000000
      f-1     :     0.000000
      f+2     :     0.000001
      f-2     :     0.000000
      f+3     :    -0.000000
      f-3     :     0.000001

 19 F s       :     0.000171  s :     0.000171
      pz      :     0.000212  p :     0.000230
      px      :     0.000011
      py      :     0.000006
      dz2     :     0.000001  d :     0.000029
      dxz     :     0.000002
      dyz     :     0.000010
      dx2y2   :     0.000018
      dxy     :    -0.000002
      f0      :    -0.000000  f :     0.000001
      f+1     :     0.000000
      f-1     :     0.000001
      f+2     :     0.000000
      f-2     :     0.000000
      f+3     :     0.000000
      f-3     :     0.000000

 20 F s       :     0.000013  s :     0.000013
      pz      :     0.000037  p :     0.000189
      px      :     0.000011
      py      :     0.000141
      dz2     :     0.000013  d :     0.000059
      dxz     :     0.000008
      dyz     :     0.000009
      dx2y2   :     0.000023
      dxy     :     0.000006
      f0      :     0.000001  f :     0.000003
      f+1     :     0.000000
      f-1     :     0.000000
      f+2     :     0.000001
      f-2     :     0.000000
      f+3     :     0.000000
      f-3     :     0.000000

 21 F s       :     0.000066  s :     0.000066
      pz      :     0.000054  p :     0.000099
      px      :    -0.000003
      py      :     0.000048
      dz2     :    -0.000000  d :     0.000010
      dxz     :     0.000001
      dyz     :     0.000007
      dx2y2   :     0.000003
      dxy     :    -0.000001
      f0      :     0.000000  f :     0.000001
      f+1     :     0.000000
      f-1     :     0.000000
      f+2     :     0.000000
      f-2     :     0.000000
      f+3     :     0.000000
      f-3     :     0.000000

 22 F s       :     0.000002  s :     0.000002
      pz      :    -0.000019  p :     0.000070
      px      :    -0.000004
      py      :     0.000093
      dz2     :     0.000003  d :     0.000023
      dxz     :     0.000003
      dyz     :     0.000010
      dx2y2   :     0.000006
      dxy     :     0.000000
      f0      :     0.000000  f :     0.000001
      f+1     :     0.000000
      f-1     :     0.000000
      f+2     :     0.000000
      f-2     :     0.000000
      f+3     :     0.000000
      f-3     :     0.000000

 23 F s       :     0.000006  s :     0.000006
      pz      :     0.000011  p :     0.000019
      px      :     0.000026
      py      :    -0.000019
      dz2     :    -0.000000  d :     0.000003
      dxz     :    -0.000000
      dyz     :     0.000002
      dx2y2   :     0.000003
      dxy     :    -0.000001
      f0      :     0.000000  f :     0.000000
      f+1     :     0.000000
      f-1     :     0.000000
      f+2     :     0.000000
      f-2     :    -0.000000
      f+3     :     0.000000
      f-3     :     0.000000

 24 F s       :     0.000036  s :     0.000036
      pz      :    -0.000000  p :     0.000279
      px      :     0.000278
      py      :     0.000001
      dz2     :     0.000003  d :     0.000023
      dxz     :     0.000002
      dyz     :     0.000000
      dx2y2   :     0.000016
      dxy     :     0.000002
      f0      :     0.000000  f :     0.000001
      f+1     :     0.000000
      f-1     :     0.000000
      f+2     :     0.000000
      f-2     :    -0.000000
      f+3     :     0.000000
      f-3     :     0.000000

 25 F s       :     0.000001  s :     0.000001
      pz      :    -0.000014  p :     0.000019
      px      :    -0.000007
      py      :     0.000040
      dz2     :     0.000001  d :     0.000007
      dxz     :     0.000001
      dyz     :     0.000005
      dx2y2   :     0.000001
      dxy     :     0.000000
      f0      :     0.000000  f :     0.000000
      f+1     :     0.000000
      f-1     :     0.000000
      f+2     :     0.000000
      f-2     :     0.000000
      f+3     :     0.000000
      f-3     :    -0.000000



                      *****************************
                      * MAYER POPULATION ANALYSIS *
                      *****************************

  NA   - Mulliken gross atomic population
  ZA   - Total nuclear charge
  QA   - Mulliken gross atomic charge
  VA   - Mayer's total valence
  BVA  - Mayer's bonded valence
  FA   - Mayer's free valence

  ATOM       NA         ZA         QA         VA         BVA        FA
  0 C      6.0485     6.0000    -0.0485     4.3588     4.0306     0.3283
  1 O      8.5394     8.0000    -0.5394     1.9419     1.8828     0.0591
  2 O      8.4849     8.0000    -0.4849     1.8742     1.8716     0.0027
  3 H      0.6948     1.0000     0.3052     0.9532     0.9529     0.0003
  4 C      5.5420     6.0000     0.4580     3.7084     3.6993     0.0091
  5 C      5.7274     6.0000     0.2726     4.0063     3.9938     0.0125
  6 C      5.6725     6.0000     0.3275     4.1184     4.1172     0.0012
  7 C      5.6718     6.0000     0.3282     4.1533     4.1530     0.0003
  8 C      5.6878     6.0000     0.3122     4.1262     4.1262     0.0000
  9 C      5.6765     6.0000     0.3235     4.1779     4.1778     0.0000
 10 C      5.5246     6.0000     0.4754     4.5159     4.5159     0.0000
 11 F      9.2311     9.0000    -0.2311     1.0313     1.0312     0.0001
 12 F      9.2332     9.0000    -0.2332     1.0249     1.0248     0.0001
 13 F      9.2042     9.0000    -0.2042     1.1000     1.1000     0.0000
 14 F      9.2014     9.0000    -0.2014     1.1066     1.1066     0.0000
 15 F      9.1862     9.0000    -0.1862     1.1215     1.1215     0.0000
 16 F      9.1838     9.0000    -0.1838     1.1250     1.1250     0.0000
 17 F      9.1761     9.0000    -0.1761     1.1374     1.1374     0.0000
 18 F      9.1760     9.0000    -0.1760     1.1399     1.1399     0.0000
 19 F      9.1717     9.0000    -0.1717     1.1472     1.1472     0.0000
 20 F      9.1712     9.0000    -0.1712     1.1460     1.1460     0.0000
 21 F      9.1674     9.0000    -0.1674     1.1510     1.1510     0.0000
 22 F      9.1644     9.0000    -0.1644     1.1517     1.1517     0.0000
 23 F      9.1559     9.0000    -0.1559     1.1617     1.1617     0.0000
 24 F      9.1540     9.0000    -0.1540     1.1650     1.1650     0.0000
 25 F      9.1533     9.0000    -0.1533     1.1652     1.1652     0.0000

  Mayer bond orders larger than 0.100000
B(  0-C ,  1-O ) :   1.8193 B(  0-C ,  2-O ) :   1.0699 B(  0-C ,  4-C ) :   0.9397 
B(  2-O ,  3-H ) :   0.8675 B(  4-C ,  5-C ) :   0.8177 B(  4-C , 11-F ) :   1.0079 
B(  4-C , 12-F ) :   1.0042 B(  5-C ,  6-C ) :   0.8947 B(  5-C , 13-F ) :   1.0475 
B(  5-C , 14-F ) :   1.0591 B(  6-C ,  7-C ) :   0.9317 B(  6-C , 15-F ) :   1.0607 
B(  6-C , 16-F ) :   1.0727 B(  7-C ,  8-C ) :   0.9286 B(  7-C , 17-F ) :   1.0712 
B(  7-C , 18-F ) :   1.0767 B(  8-C ,  9-C ) :   0.9255 B(  8-C , 19-F ) :   1.0799 
B(  8-C , 20-F ) :   1.0840 B(  9-C , 10-C ) :   0.9696 B(  9-C , 21-F ) :   1.0863 
B(  9-C , 22-F ) :   1.0953 B( 10-C , 23-F ) :   1.1445 B( 10-C , 24-F ) :   1.1460 
B( 10-C , 25-F ) :   1.1558 

-------
TIMINGS
-------

Total SCF time: 0 days 0 hours 0 min 45 sec 

Total time                  ....      45.603 sec
Sum of individual times     ....      44.158 sec  ( 96.8%)

SCF preparation             ....       1.488 sec  (  3.3%)
Fock matrix formation       ....      37.691 sec  ( 82.7%)
  Startup                   ....       0.170 sec  (  0.5% of F)
  Split-RI-J                ....       2.248 sec  (  6.0% of F)
  Chain of spheres X        ....      27.719 sec  ( 73.5% of F)
  XC integration            ....       5.264 sec  ( 14.0% of F)
    XC Preparation          ....       0.000 sec  (  0.0% of XC)
    Basis function eval.    ....       0.488 sec  (  9.3% of XC)
    Density eval.           ....       1.068 sec  ( 20.3% of XC)
    XC-Functional eval.     ....       0.041 sec  (  0.8% of XC)
    XC-Potential eval.      ....       1.208 sec  ( 22.9% of XC)
  CPCM terms                ....       1.878 sec  (  5.0% of F)
Diagonalization             ....       0.000 sec  (  0.0%)
Density matrix formation    ....       0.391 sec  (  0.9%)
Total Energy calculation    ....       0.286 sec  (  0.6%)
Population analysis         ....       0.402 sec  (  0.9%)
Orbital Transformation      ....       0.546 sec  (  1.2%)
Orbital Orthonormalization  ....       0.000 sec  (  0.0%)
DIIS solution               ....       0.666 sec  (  1.5%)
SOSCF solution              ....       2.688 sec  (  5.9%)
Finished LeanSCF after  45.9 sec

Maximum memory used throughout the entire LEANSCF-calculation: 111.3 MB


-------------------------------------------------------------------------------
                          DFT DISPERSION CORRECTION                            
                                                                               
                              DFTD3 V3.1  Rev 1                                
                          USING Becke-Johnson damping                          
-------------------------------------------------------------------------------
The B3LYP functional is recognized
Active option DFTDOPT                   ...         4   

molecular C6(AA) [au] = 6841.345131 


            DFT-D V3
 parameters
 s6 scaling factor         :     1.0000 
 a1 scaling factor         :     0.3981 
 s8 scaling factor         :     1.9889 
 a2 scaling factor         :     4.4211 
 ad hoc parameters k1-k3   :    16.0000     1.3333    -4.0000 

 Edisp/kcal,au: -28.155094149975  -0.044867993728 
 E6   /kcal   : -13.436096271 
 E8   /kcal   : -14.718997879 
 % E8         :  52.278276183 

-------------------------   ----------------
Dispersion correction           -0.044867994
-------------------------   ----------------


-------------------------   --------------------
FINAL SINGLE POINT ENERGY     -1953.719285944616
-------------------------   --------------------

                                *** OPTIMIZATION RUN DONE ***



           ************************************************************
           *        Program running with 20 parallel MPI-processes    *
           *              working on a common directory               *
           ************************************************************

------------------------------------------------------------------------------
                              ORCA PROPERTY CALCULATIONS
------------------------------------------------------------------------------

GBWName                                 ... rf_mecn_opt_B3L_P_A-2.gbw
Number of atoms                         ...     26
Number of basis functions               ...    781
Max core memory                         ...   8000 MB

Electric properties:
Dipole moment                           ... YES
Quadrupole moment                       ...  NO
Static polarizability (Dipole/Dipole)   ...  NO
Static polarizability (Dipole/Quad.)    ...  NO
Static polarizability (Quad./Quad.)     ...  NO
Static polarizability (Velocity)        ...  NO

Atomic electric properties:
Dipole moment                           ...  NO
Quadrupole moment                       ...  NO
Static polarizability                   ...  NO

Choice of electric origin               ... Center of mass
Position of electric origin             ...    -0.071632    -0.021901    -0.005378

General magnetic properties:
Magnetizability                         ...  NO

EPR properties:
g-Tensor (aka g-matrix)                 ...  NO
Zero-Field splitting spin-orbit         ...  NO
Zero-field splitting spin-spin          ...  NO
Hyperfine couplings                     ...  NO (   0 nuclei)
Quadrupole couplings                    ...  NO (   0 nuclei)
Contact density                         ...  NO (   0 nuclei)

NMR properties:
Chemical shifts                         ...  NO (   0 nuclei)
Spin-rotation constants                 ...  NO (   0 nuclei)
Spin-spin couplings                     ...  NO (   0 nuclei,    0 pairs)

Choice of magnetic origin               ... GIAO
Position of magnetic origin             ...     0.000000     0.000000     0.000000

Properties with geometric perturbations:
SCF Hessian                             ...  NO
IR spectrum                             ...  NO
VCD spectrum                            ...  NO
X-ray spectroscopy properties:
SCF XES/XAS/RIXS spectra                ...  NO


-------------
DIPOLE MOMENT
-------------

Method             : SCF
Type of density    : Electron Density
Multiplicity       :   2
Irrep              :   0
Energy             : -1953.6744179508880279 Eh
Relativity type    : 
Basis              : AO
                                X                 Y                 Z
Electronic contribution:    -22.987895538      -1.934260022       1.719331195
Nuclear contribution   :     15.471611375       2.592453821      -1.256218834
                        -----------------------------------------
Total Dipole Moment    :     -7.516284163       0.658193799       0.463112361
                        -----------------------------------------
Magnitude (a.u.)       :      7.559247301
Magnitude (Debye)      :     19.214079671



--------------------
Rotational spectrum 
--------------------
 
Rotational constants in cm-1:             0.021052             0.003654             0.003611 
Rotational constants in MHz :           631.138002           109.543289           108.263623 

Dipole components along the rotational axes: 
x,y,z [a.u.] :     7.518293    -0.643317    -0.451259 
x,y,z [Debye]:    19.109982    -1.635183    -1.147009 

 

Dipole moment calculation done in   0.2 sec 

Maximum memory used throughout the entire PROP-calculation: 59.0 MB

--------------------------------
SUGGESTED CITATIONS FOR THIS RUN
--------------------------------

Below you find a list of papers that are relevant to this ORCA run
We neither can nor want to force you to cite these papers, but we appreciate if you do
You receive ORCA, which is the product of decades of hard work by many enthusiastic individuals, for free
The only thing we kindly ask in return is that you cite our papers,
We deeply appreciate it, if you show your appreciation for ORCA by not just citing the generic ORCA reference.

Please note that relegating all ORCA citations to the supporting information does *not* help us.
SI sections are not indexed - citations you put there will not count into any citation statistics
But we need these citations in order to attract the funding resources that allow us to do what we are doing

Therefore, if you are a happy ORCA user, please consider citing a few of the papers listed below in the main body of your paper

In addition to the list printed below, the program has created the file rf_mecn_opt_B3L_P_A-2.bibtex that contains the list in bibtex format
You can import this file easily into all common literature databanks and citation aid programs


List of essential papers. We consider these as the minimum necessary citations

  1. Neese,F.
     Software update: the ORCA program system, version 5.0
     WIRES Comput. Molec. Sci., 2022 12(1)e1606
     doi.org/10.1002/wcms.1606

List of papers to cite with high priority. The work reported in these papers was absolutely
necessary for this run to complete.
Our perspective: the developers of density functionals and basis sets usually get cited in chemistry papers
Good! But without the algorithms to do something with them, the functionals or basis sets would not do anything.
Hence, in our opinion, the algorithm design and method developments papers are equally worthy of getting cited

  1. Neese,F.
     An improvement of the resolution of the identity approximation for the formation of the Coulomb matrix
     J. Comp. Chem., 2003 24(14)1740-1747
     doi.org/10.1002/jcc.10318
  2. Neese,F.; Wennmohs,F.; Hansen,A.; Becker,U.
     Efficient, approximate and parallel Hartree-Fock and hybrid DFT calculations. A 'chain-of-spheres' algorithm for the Hartree-Fock exchange
     Chem. Phys., 2009 356(1-3)98-109
     doi.org/10.1016/j.chemphys.2008.10.036
  3. Garcia-Rates,M.; Neese,F.
     Effect of the Solute Cavity on the Solvation Energy and its Derivatives within the Framework of the Gaussian Charge Scheme
     J. Comput. Chem., 2020 41 922-939
     doi.org/10.1002/jcc.26139
  4. Helmich-Paris,B.; de Souza,B.; Neese,F.; Izsák,R.
     An improved chain of spheres for exchange algorithm
     J. Chem. Phys., 2021 155 104109
     doi.org/doi: 10.1063/5.0058766.
  5. Neese,F.
     The SHARK Integral Generation and Digestion System
     J. Comp. Chem., 2022  1-16
     doi.org/10.1002/jcc.26942
  6. Grimme,S.; Antony,J.; Ehrlich,S.; Krieg,H.
     A consistent and accurate ab initio parametrization of density functional dispersion correction (DFT-D) for the 94 elements H-Pu
     J. Chem. Phys., 2010 132 154104
     doi.org/10.1063/1.3382344
  7. Grimme,S.; Ehrlich,S.; Goerigk,L.
     Effect of the damping function in dispersion corrected density functional theory
     J. Comput. Chem., 2011 32(7)1456-1465
     doi.org/10.1002/jcc.21759

List of suggested additional citations. These are papers that are important in the 'surrounding' of 
of this run, or papers that preceded the highly important papers. If you like your results we are grateful for a citation.

  1. Izsak,R.; Neese,F.
     An overlap fitted chain of spheres exchange method
     J. Chem. Phys., 2011 135 144105
     doi.org/10.1063/1.3646921
  2. Izsak,R.; Hansen,A.; Neese,F.
     The resolution of identity and chain of spheres approximations for the LPNO-CCSD singles Fock term
     Molec. Phys., 2012 110 2413-2417
     doi.org/10.1080/00268976.2012.687466
  3. Neese,F.
     The ORCA program system
     WIRES Comput. Molec. Sci., 2012 2(1)73-78
     doi.org/10.1002/wcms.81
  4. Izsak,R.; Neese,F.; Klopper,W.
     Robust fitting techniques in the chain of spheres approximation to the Fock exchange: The role of the complementary space
     J. Chem. Phys., 2013 139 
     doi.org/10.1063/1.4819264
  5. Neese,F.
     Software update: the ORCA program system, version 4.0
     WIRES Comput. Molec. Sci., 2018 8(1)1-6
     doi.org/10.1002/wcms.1327
  6. Neese,F.; Wennmohs,F.; Becker,U.; Riplinger,C.
     The ORCA quantum chemistry program package
     J. Chem. Phys., 2020 152 Art. No. L224108
     doi.org/10.1063/5.0004608

List of optional additional citations

  1. Neese,F.
     Approximate second-order SCF convergence for spin unrestricted wavefunctions
     Chem. Phys. Lett., 2000 325(1-3)93-98
     doi.org/10.1016/s0009-2614(00)00662-x

Timings for individual modules:

Sum of individual times          ...      582.775 sec (=   9.713 min)
Startup calculation              ...       31.856 sec (=   0.531 min)   5.5 %
SCF iterations                   ...      417.848 sec (=   6.964 min)  71.7 %
Property calculations            ...        1.199 sec (=   0.020 min)   0.2 %
SCF Gradient evaluation          ...      131.742 sec (=   2.196 min)  22.6 %
Geometry relaxation              ...        0.131 sec (=   0.002 min)   0.0 %
                             ****ORCA TERMINATED NORMALLY****
TOTAL RUN TIME: 0 days 0 hours 9 minutes 48 seconds 425 msec
