
                                 *****************
                                 * O   R   C   A *
                                 *****************

                                            #,                                       
                                            ###                                      
                                            ####                                     
                                            #####                                    
                                            ######                                   
                                           ########,                                 
                                     ,,################,,,,,                         
                               ,,#################################,,                 
                          ,,##########################################,,             
                       ,#########################################, ''#####,          
                    ,#############################################,,   '####,        
                  ,##################################################,,,,####,       
                ,###########''''           ''''###############################       
              ,#####''   ,,,,##########,,,,          '''####'''          '####       
            ,##' ,,,,###########################,,,                        '##       
           ' ,,###''''                  '''############,,,                           
         ,,##''                                '''############,,,,        ,,,,,,###''
      ,#''                                            '''#######################'''  
     '                                                          ''''####''''         
             ,#######,   #######,   ,#######,      ##                                
            ,#'     '#,  ##    ##  ,#'     '#,    #''#        ,####,   ,####,        
            ##       ##  ##   ,#'  ##            #'  '#       #'       #'  '#        
            ##       ##  #######   ##           ,######,      #####,   #    #        
            '#,     ,#'  ##    ##  '#,     ,#' ,#      #,     #,   #   #,  ,#        
             '#######'   ##     ##  '#######'  #'      '#     '####' # '####'        



                #########################################################
                #                        -***-                          #
                #          Department of theory and spectroscopy        #
                #                                                       #
                #                      Frank Neese                      #
                #                                                       #
                #     Directorship, Architecture, Infrastructure        #
                #                    SHARK, DRIVERS                     #
                #        Core code/Algorithms in most modules           #
                #                                                       #
                #        Max Planck Institute fuer Kohlenforschung      #
                #                Kaiser Wilhelm Platz 1                 #
                #                 D-45470 Muelheim/Ruhr                 #
                #                      Germany                          #
                #                                                       #
                #                  All rights reserved                  #
                #                        -***-                          #
                #########################################################


                         Program Version 6.0.1  -  RELEASE   -


 With contributions from (in alphabetic order):
[Max-Planck-Institut fuer Kohlenforschung]                               
  Daniel Aravena         : Magnetic Suceptibility                        
  Michael Atanasov       : Ab Initio Ligand Field Theory (pilot matlab implementation)
  Alexander A. Auer      : GIAO ZORA, VPT2 properties, NMR spectrum      
  Ute Becker             : All parallelization in ORCA, NUMFREQ, NUMCALC 
  Giovanni Bistoni       : ED, misc. LED, open-shell LED, HFLD           
  Martin Brehm           : Molecular dynamics                            
  Dmytro Bykov           : pre 5.0 version of the SCF Hessian            
  Marcos Casanova-Páez   : Triplet and SCS-CIS(D). UHF-(DLPNO)-IP/EA/STEOM-CCSD. UHF-CVS-IP/STEOM-CCSD   
  Vijay G. Chilkuri      : MRCI spin determinant printing, contributions to CSF-ICE 
  Pauline Colinet        : FMM embedding                                 
  Dipayan Datta          : RHF DLPNO-CCSD density                        
  Achintya Kumar Dutta   : EOM-CC, STEOM-CC                              
  Nicolas Foglia         : Exact transition moments, OPA infrastructure, MCD improvements    
  Dmitry Ganyushin       : Spin-Orbit,Spin-Spin,Magnetic field MRCI      
  Miquel Garcia-Rates    : C-PCM and meta-GGA Hessian, CCSD/C-PCM, Gaussian charge scheme 
  Tiago L. C. Gouveia    : GS-ROHF, GS-ROCIS                             
  Yang Guo               : DLPNO-NEVPT2, F12-NEVPT2, CIM, IAO-localization        
  Andreas Hansen         : Spin unrestricted coupled pair/coupled cluster methods 
  Ingolf Harden          : AUTO-CI MPn and infrastructure                
  Benjamin Helmich-Paris : MC-RPA, TRAH-(SCF,CASSCF), AVAS, COSX integrals, SCF dyn. polar. 
  Lee Huntington         : MR-EOM, pCC                                   
  Robert Izsak           : Overlap fitted RIJCOSX, COSX-SCS-MP3, EOM     
  Riya Kayal             : Wick's Theorem for AUTO-CI, AUTO-CI UHF-CCSDT 
  Emily Kempfer          : AUTO-CI, RHF CISDT and CCSDT                  
  Christian Kollmar      : KDIIS, OOCD, Brueckner-CCSD(T), CCSD density, CASPT2, CASPT2-K, improved NEVPT2 
  Axel Koslowski         : Symmetry handling                             
  Simone Kossmann        : meta-GGA functionals, TD-DFT gradient, OOMP2, (MP2 Hessian; deprecated post 5.0) 
  Lucas Lang             : DCDCAS                                        
  Marvin Lechner         : AUTO-CI (C++ implementation), FIC-MRCC        
  Spencer Leger          : CASSCF response                               
  Dagmar Lenk            : GEPOL surface, SMD, ORCA-2-JSON               
  Dimitrios Liakos       : Extrapolation schemes; Compound Job, initial MDCI parallelization 
  Dimitrios Manganas     : Further ROCIS development; embedding schemes. LFT, Crystal Embedding 
  Dimitrios Pantazis     : SARC Basis sets                               
  Anastasios Papadopoulos: AUTO-CI, single reference methods and gradients 
  Taras Petrenko         : pre 6.0 DFT Hessian and TD-DFT gradient, (ASA, deprecated), ECA, 1-Electron XAS/XES, NRVS 
  Peter Pinski           : DLPNO-MP2, DLPNO-MP2 Gradient                 
  Christoph Reimann      : Effective Core Potentials                     
  Marius Retegan         : Local ZFS, SOC                                
  Christoph Riplinger    : Optimizer, TS searches, QM/MM, DLPNO-CCSD(T), (RO)-DLPNO pert. Triples 
  Michael Roemelt        : Original ROCIS implementation                 
  Masaaki Saitow         : Open-shell DLPNO-CCSD energy and density      
  Barbara Sandhoefer     : DKH picture change effects                    
  Kantharuban Sivalingam : CASSCF convergence/infrastructure, NEVPT2 and variants, FIC-MRCI 
  Bernardo de Souza      : ESD, SOC TD-DFT                               
  Georgi L. Stoychev     : AutoAux, RI-MP2 NMR, DLPNO-MP2 response, X2C  
  Van Anh Tran           : RI-MP2 g-tensors                              
  Willem Van den Heuvel  : Paramagnetic NMR                              
  Zikuan Wang            : NOTCH, Electric field optimization            
  Frank Wennmohs         : Technical directorship and infrastructure     
  Hang Xu                : AUTO-CI-Response properties                   
                                                                         
[FACCTs GmbH]                                                            
  Markus Bursch, Miquel Garcia-Rates, Christoph Riplinger, Bernardo de Souza, Georgi L. Stoychev 
                                                                 
  APM, Basis sets (HGBS, AHGBS, def-TZVP (Ac-Lr), def2-XVPD (La-Lu)), CI-OPT, improved COSX, DLPNO-Multilevel,           
  DOCKER, DRACO, updates on ESD, GOAT, IRC, LR-CPCM, MBIS, meta-GGA TD-DFT gradient, ML-optimized integration grids, 
  MM, NACMEs, nearIR, NEB, NEB-TS, NL-DFT gradient (VV10), 2- and 3-layer-ONIOM, interface openCOSMO-RS, QMMM,   
  Crystal-QMMM, SF, symmetry and pop. for TD-DFT, r2SCAN hybrids, SOLVATOR                                   
                                                                         
[Other institutions]                                                     
  V. Asgeirsson          : NEB                                           
  Christoph Bannwarth    : sTDA-DFT, sTD-DFT, PBEh-3c, B97-3c, D3        
  Sebastian Ehlert       : rSCAN, r2SCAN, r2SCAN-3c, D4, dhf basis sets  
  Marvin Friede          : D4 for Fr, Ra, Ac-Lr                          
  Lars Goerigk           : TD-DFT with DH, B97 family of functionals     
  Stefan Grimme          : VdW corrections, initial TS optimization, DFT functionals, gCP, sTDA/sTD-DF 
  Waldemar Hujo          : DFT-NL                                        
  H. Jonsson             : NEB                                           
  Holger Kruse           : gCP                                           
  Marcel Mueller         : wB97X-3c, vDZP basis set                      
  Hagen Neugebauer       : wr2SCAN                                       
  Tobias Risthaus        : range-separated hybrid DFT                    
  Lukas Wittmann         : regularized MP2, r2SCAN double-hybrids, wr2SCAN        
                                                                         
We gratefully acknowledge several colleagues who have allowed us to      
interface, adapt or use parts of their codes:                            
  Ed Valeev, F. Pavosevic, A. Kumar             : LibInt (2-el integral package), F12 methods 
  Garnet Chan, S. Sharma, J. Yang, R. Olivares  : DMRG                   
  Ulf Ekstrom                                   : XCFun DFT Library      
  Mihaly Kallay                                 : mrcc  (arbitrary order and MRCC methods)
  Frank Weinhold                                : gennbo (NPA and NBO analysis)           
  Simon Mueller                                 : openCOSMO-RS                            
  Christopher J. Cramer and Donald G. Truhlar   : smd solvation model                     
  S Lehtola, MJT Oliveira, MAL Marques          : LibXC Library                           
  Liviu Ungur et al                             : ANISO software                          


 Your calculation uses the libint2 library for the computation of 2-el integrals
 For citations please refer to: http://libint.valeyev.net

 Your ORCA version has been built with support for libXC version: 6.2.2
 For citations please refer to: https://libxc.gitlab.io

 This ORCA versions uses:
   CBLAS   interface :  Fast vector & matrix operations
   LAPACKE interface :  Fast linear algebra routines
   SCALAPACK package :  Parallel linear algebra routines
   Shared memory     :  Shared parallel matrices
   BLAS/LAPACK       :  OpenBLAS 0.3.27  USE64BITINT DYNAMIC_ARCH NO_AFFINITY SkylakeX SINGLE_THREADED
        Core in use  :  SkylakeX
   Copyright (c) 2011-2014, The OpenBLAS Project


NOTE: MaxCore=8000 MB was set to SCF,MP2,MDCI,CIPSI,MRCI and CIS
      => If you want to overwrite this, your respective input block should be placed after the MaxCore statement
Your calculation utilizes the atom-pairwise dispersion correction
with the Becke-Johnson damping scheme (D3BJ)


Your calculation utilizes the SMD solvation module
Please cite in your paper:
A.V. Marenich, C.J. Cramer, D.G. Truhlar J. Phys. Chem. B, 113, (2009), 6378 

Warning: RI is on but no J-basis has been assigned. Assigning Def2/J (nothing to worry about!)
================================================================================

----- Orbital basis set information -----
Your calculation utilizes the basis: def2-TZVP
   F. Weigend and R. Ahlrichs, Phys. Chem. Chem. Phys. 7, 3297 (2005).

----- AuxJ basis set information -----
Your calculation utilizes the auxiliary basis: def2/J
   F. Weigend, Phys. Chem. Chem. Phys. 8, 1057 (2006).

================================================================================
                                        WARNINGS
                       Please study these warnings very carefully!
================================================================================


WARNING: Geometry Optimization
  ===> : Switching off AutoStart
         For restart on a previous wavefunction, please use MOREAD

================================================================================
                                       INPUT FILE
================================================================================
NAME = rf_mecn_2H2O_opt_TP_sw_003.inp
|  1> !TPSSh def2-TZVP opt d3 TightSCF SlowConv defgrid2
|  2>  
|  3> %pal
|  4> nprocs 20
|  5> end
|  6>  
|  7> %scf
|  8> MaxIter 1500
|  9> end
| 10>  
| 11> %maxcore 8000
| 12>  
| 13> !CPCM
| 14> %cpcm smd true
| 15> SMDsolvent "ACETONITRILE"
| 16> end
| 17>  
| 18> * xyz -1 1
| 19> 6        7.061480798     27.780530965      3.106576640
| 20> 6        6.358244798     26.583375965      2.416992640
| 21> 6        7.290739798     25.361615965      2.191470640
| 22> 6        6.503816798     24.050508965      1.905927640
| 23> 6        7.390081798     22.949036965      1.254848640
| 24> 6        6.769590798     21.526080965      1.366223640
| 25> 6        7.389881798     20.495443965      0.400529640
| 26> 6        7.047594798     19.000380965      0.790287640
| 27> 9        8.211006798     28.061334965      2.509442640
| 28> 9        7.286980798     27.526353965      4.384782640
| 29> 9        6.271788798     28.845445965      3.024205640
| 30> 9        5.320618798     26.239799965      3.188367640
| 31> 9        5.906995798     27.014763965      1.236217640
| 32> 9        8.092105798     25.656497965      1.162788640
| 33> 9        8.034091798     25.196969965      3.293178640
| 34> 9        6.010694798     23.624429965      3.072509640
| 35> 9        5.491631798     24.352956965      1.082460640
| 36> 9        7.554809798     23.292706965     -0.028459360
| 37> 9        8.581822798     22.977688965      1.870991640
| 38> 9        6.960326798     21.133942965      2.637027640
| 39> 9        5.455181798     21.663434965      1.139465640
| 40> 9        6.910796798     20.782536965     -0.839488360
| 41> 9        8.723370798     20.748082965      0.370020640
| 42> 8        8.017941798     18.242246965      0.795072640
| 43> 8        5.838755798     18.846145965      1.003745640
| 44> 8        3.022589945     18.615377681      1.418469618
| 45> 1        2.921133959     17.670398128      1.249412630
| 46> 1        3.952270754     18.785006115      1.221543930
| 47> 1        9.651244624     17.272645385      0.841919800
| 48> 8       10.455174784     16.738287734      0.846178529
| 49> 1       10.221449611     15.976809483      1.391507198
| 50> *
| 51> 
| 52>                          ****END OF INPUT****
================================================================================

                       *****************************
                       * Geometry Optimization Run *
                       *****************************

Geometry optimization settings:
Update method            Update   .... BFGS
Choice of coordinates    CoordSys .... (2022) Redundant Internals
Initial Hessian          InHess   .... Almloef's Model
Max. no of cycles        MaxIter  .... 93

Convergence Tolerances:
Energy Change            TolE     ....  5.0000e-06 Eh
Max. Gradient            TolMAXG  ....  3.0000e-04 Eh/bohr
RMS Gradient             TolRMSG  ....  1.0000e-04 Eh/bohr
Max. Displacement        TolMAXD  ....  4.0000e-03 bohr
RMS Displacement         TolRMSD  ....  2.0000e-03 bohr
Strict Convergence                .... False

------------------------------------------------------------------------------
                        ORCA OPTIMIZATION COORDINATE SETUP
------------------------------------------------------------------------------

The optimization will be done in redundant internal coordinates (2022)
Making redundant internal coordinates   ...  (2022 redundants) done
Evaluating the initial hessian          ...  (Almloef) done
Evaluating the coordinates              ...  done
Calculating the B-matrix                .... done
Calculating the G-matrix                .... done
Diagonalizing the G-matrix              .... done
Small eigenvalue found = 2.044e-03
Small eigenvalue found = 6.984e-03
Small eigenvalue found = 8.997e-03
Small eigenvalue found = 1.096e-02
Small eigenvalue found = 1.565e-02
The first mode is                       ....   43
The number of degrees of freedom        ....   87

    -----------------------------------------------------------------
                    Redundant Internal Coordinates


    -----------------------------------------------------------------
         Definition                    Initial Value    Approx d2E/dq
    -----------------------------------------------------------------
      1. B(C   1,C   0)                  1.5502         0.346804   
      2. B(C   2,C   1)                  1.5534         0.342781   
      3. B(C   3,C   2)                  1.5556         0.340086   
      4. B(C   4,C   3)                  1.5565         0.338954   
      5. B(C   5,C   4)                  1.5563         0.339111   
      6. B(C   6,C   5)                  1.5426         0.356709   
      7. B(C   7,C   6)                  1.5825         0.308055   
      8. B(F   8,C   0)                  1.3255         0.659090   
      9. B(F   9,C   0)                  1.3226         0.666042   
     10. B(F  10,C   0)                  1.3283         0.652181   
     11. B(F  11,C   1)                  1.3378         0.629847   
     12. B(F  12,C   1)                  1.3356         0.634870   
     13. B(F  13,C   2)                  1.3369         0.631928   
     14. B(F  14,C   2)                  1.3392         0.626649   
     15. B(F  15,C   3)                  1.3363         0.633409   
     16. B(F  16,C   3)                  1.3394         0.626090   
     17. B(F  17,C   4)                  1.3387         0.627782   
     18. B(F  18,C   4)                  1.3419         0.620447   
     19. B(F  19,C   5)                  1.3435         0.616728   
     20. B(F  20,C   5)                  1.3409         0.622782   
     21. B(F  21,C   6)                  1.3600         0.580545   
     22. B(F  22,C   6)                  1.3576         0.585779   
     23. B(O  23,C   7)                  1.2314         1.002075   
     24. B(O  24,C   7)                  1.2372         0.981004   
     25. B(H  26,O  25)                  0.9653         0.509876   
     26. B(H  27,O  24)                  1.9000         0.016453   
     27. B(H  27,O  25)                  0.9653         0.509876   
     28. B(H  28,O  23)                  1.9000         0.016453   
     29. B(O  29,H  28)                  0.9653         0.509876   
     30. B(H  30,O  29)                  0.9653         0.509876   
     31. A(F   8,C   0,F   9)          109.1619         0.434870   
     32. A(F   9,C   0,F  10)          108.3827         0.434046   
     33. A(F   8,C   0,F  10)          108.5307         0.433227   
     34. A(C   1,C   0,F  10)          108.7739         0.390821   
     35. A(C   1,C   0,F   9)          111.0282         0.392261   
     36. A(C   1,C   0,F   8)          110.8930         0.391542   
     37. A(C   2,C   1,F  11)          110.3230         0.387660   
     38. A(C   0,C   1,F  11)          107.0787         0.388450   
     39. A(C   0,C   1,C   2)          113.5553         0.353571   
     40. A(F  11,C   1,F  12)          109.3079         0.427641   
     41. A(C   2,C   1,F  12)          109.1769         0.388197   
     42. A(C   0,C   1,F  12)          107.2827         0.388989   
     43. A(C   3,C   2,F  13)          110.3587         0.387350   
     44. A(F  13,C   2,F  14)          109.1107         0.426896   
     45. A(C   1,C   2,F  14)          108.0873         0.387316   
     46. A(C   1,C   2,C   3)          112.6983         0.352402   
     47. A(C   1,C   2,F  13)          107.3405         0.387883   
     48. A(C   3,C   2,F  14)          109.1587         0.386784   
     49. A(F  15,C   3,F  16)          109.2595         0.427007   
     50. A(C   2,C   3,C   4)          112.6559         0.351734   
     51. A(C   4,C   3,F  15)          110.4668         0.387282   
     52. A(C   2,C   3,F  15)          107.1682         0.387508   
     53. A(C   4,C   3,F  16)          109.4458         0.386499   
     54. A(C   2,C   3,F  16)          107.7470         0.386724   
     55. A(C   3,C   4,F  18)          107.3682         0.385890   
     56. A(C   5,C   4,F  17)          110.6326         0.386712   
     57. A(C   3,C   4,F  17)          106.8213         0.386681   
     58. A(C   3,C   4,C   5)          112.9589         0.351563   
     59. A(F  17,C   4,F  18)          108.9895         0.425634   
     60. A(C   5,C   4,F  18)          109.9216         0.385921   
     61. A(C   4,C   5,C   6)          113.9380         0.354615   
     62. A(F  19,C   5,F  20)          109.2091         0.424568   
     63. A(C   6,C   5,F  20)          110.9006         0.389596   
     64. A(C   4,C   5,F  20)          106.5622         0.386174   
     65. A(C   6,C   5,F  19)          109.8795         0.388932   
     66. A(C   4,C   5,F  19)          106.1374         0.385517   
     67. A(C   5,C   6,C   7)          112.9578         0.348903   
     68. A(F  21,C   6,F  22)          106.6335         0.415450   
     69. A(C   7,C   6,F  22)          113.1920         0.375779   
     70. A(C   5,C   6,F  22)          106.5420         0.385457   
     71. A(C   7,C   6,F  21)          110.3532         0.375197   
     72. A(C   5,C   6,F  21)          106.7446         0.384856   
     73. A(O  23,C   7,O  24)          133.8297         0.508781   
     74. A(C   6,C   7,O  24)          111.8150         0.413089   
     75. A(C   6,C   7,O  23)          114.3410         0.414652   
     76. A(C   7,O  23,H  28)          172.5992         0.232430   
     77. A(C   7,O  24,H  27)          173.6796         0.231741   
     78. A(H  26,O  25,H  27)          103.7396         0.319780   
     79. A(O  24,H  27,O  25)          170.1504         0.195092   
     80. L(O  23,H  28,O  29,H  30, 2) 175.8870         0.195092   
     81. L(O  23,H  28,O  29,H  30, 1) 178.2261         0.195092   
     82. A(H  28,O  29,H  30)          103.7396         0.319780   
     83. D(C   2,C   1,C   0,F  10)    168.2729         0.009705   
     84. D(F  11,C   1,C   0,F   9)     49.4768         0.009705   
     85. D(F  11,C   1,C   0,F   8)    171.0207         0.009705   
     86. D(F  11,C   1,C   0,F  10)    -69.7011         0.009705   
     87. D(C   2,C   1,C   0,F   9)    -72.5492         0.009705   
     88. D(C   2,C   1,C   0,F   8)     48.9947         0.009705   
     89. D(C   3,C   2,C   1,C   0)    162.7875         0.009500   
     90. D(F  13,C   2,C   1,F  11)    164.2939         0.009500   
     91. D(F  13,C   2,C   1,C   0)    -75.4998         0.009500   
     92. D(F  13,C   2,C   1,F  12)     44.1537         0.009500   
     93. D(C   3,C   2,C   1,F  11)     42.5812         0.009500   
     94. D(C   3,C   2,C   1,F  12)    -77.5590         0.009500   
     95. D(C   4,C   3,C   2,F  13)     42.1846         0.009364   
     96. D(C   4,C   3,C   2,F  14)    -77.7232         0.009364   
     97. D(C   4,C   3,C   2,C   1)    162.1720         0.009364   
     98. D(F  15,C   3,C   2,F  14)     43.9807         0.009364   
     99. D(F  15,C   3,C   2,F  13)    163.8885         0.009364   
    100. D(F  15,C   3,C   2,C   1)    -76.1241         0.009364   
    101. D(F  17,C   4,C   3,F  16)     43.8732         0.009308   
    102. D(F  17,C   4,C   3,F  15)    164.2137         0.009308   
    103. D(F  17,C   4,C   3,C   2)    -75.9715         0.009308   
    104. D(C   5,C   4,C   3,F  16)    -77.9884         0.009308   
    105. D(C   5,C   4,C   3,F  15)     42.3521         0.009308   
    106. D(C   5,C   4,C   3,C   2)    162.1669         0.009308   
    107. D(F  19,C   5,C   4,F  18)     44.0726         0.009315   
    108. D(F  19,C   5,C   4,F  17)    164.4895         0.009315   
    109. D(F  19,C   5,C   4,C   3)    -75.8189         0.009315   
    110. D(C   6,C   5,C   4,F  18)    -76.9753         0.009315   
    111. D(C   6,C   5,C   4,F  17)     43.4416         0.009315   
    112. D(C   6,C   5,C   4,C   3)    163.1331         0.009315   
    113. D(C   7,C   6,C   5,C   4)    164.0956         0.010222   
    114. D(F  21,C   6,C   5,F  20)     45.7788         0.010222   
    115. D(F  21,C   6,C   5,F  19)    166.6154         0.010222   
    116. D(F  21,C   6,C   5,C   4)    -74.4447         0.010222   
    117. D(C   7,C   6,C   5,F  20)    -75.6808         0.010222   
    118. D(C   7,C   6,C   5,F  19)     45.1557         0.010222   
    119. D(O  24,C   7,C   6,F  21)    -70.5516         0.007386   
    120. D(O  24,C   7,C   6,C   5)     48.8461         0.007386   
    121. D(O  23,C   7,C   6,F  22)    -11.1459         0.007386   
    122. D(O  23,C   7,C   6,F  21)    108.2663         0.007386   
    123. D(O  23,C   7,C   6,C   5)   -132.3360         0.007386   
    124. D(H  28,O  23,C   7,O  24)   -156.6482         0.082309   
    125. D(H  28,O  23,C   7,C   6)     24.8732         0.082309   
    126. D(H  27,O  24,C   7,O  23)   -158.3762         0.078375   
    127. D(H  27,O  24,C   7,C   6)     20.1307         0.078375   
    128. D(O  24,H  27,O  25,H  26)    -44.6419         0.289652   
    129. D(O  25,H  27,O  24,C   7)    180.0000         0.001625   
    130. D(H  30,O  29,O  23,C   7)    137.7355         0.001500   
    -----------------------------------------------------------------

Number of atoms                         .... 31
Number of degrees of freedom            .... 130


         *************************************************************
         *                GEOMETRY OPTIMIZATION CYCLE   1            *
         *************************************************************
---------------------------------
CARTESIAN COORDINATES (ANGSTROEM)
---------------------------------
  C      7.061481   27.780531    3.106577
  C      6.358245   26.583376    2.416993
  C      7.290740   25.361616    2.191471
  C      6.503817   24.050509    1.905928
  C      7.390082   22.949037    1.254849
  C      6.769591   21.526081    1.366224
  C      7.389882   20.495444    0.400530
  C      7.047595   19.000381    0.790288
  F      8.211007   28.061335    2.509443
  F      7.286981   27.526354    4.384783
  F      6.271789   28.845446    3.024206
  F      5.320619   26.239800    3.188368
  F      5.906996   27.014764    1.236218
  F      8.092106   25.656498    1.162789
  F      8.034092   25.196970    3.293179
  F      6.010695   23.624430    3.072510
  F      5.491632   24.352957    1.082461
  F      7.554810   23.292707   -0.028459
  F      8.581823   22.977689    1.870992
  F      6.960327   21.133943    2.637028
  F      5.455182   21.663435    1.139466
  F      6.910797   20.782537   -0.839488
  F      8.723371   20.748083    0.370021
  O      8.017942   18.242247    0.795073
  O      5.838756   18.846146    1.003746
  O      3.022590   18.615378    1.418470
  H      2.921134   17.670398    1.249413
  H      3.952271   18.785006    1.221544
  H      9.651245   17.272645    0.841920
  O     10.455175   16.738288    0.846179
  H     10.221450   15.976809    1.391507

----------------------------
CARTESIAN COORDINATES (A.U.)
----------------------------
  NO LB      ZA    FRAG     MASS         X           Y           Z
   0 C     6.0000    0    12.011   13.344265   52.497595    5.870579
   1 C     6.0000    0    12.011   12.015341   50.235300    4.567454
   2 C     6.0000    0    12.011   13.777502   47.926508    4.141279
   3 C     6.0000    0    12.011   12.290433   45.448875    3.601681
   4 C     6.0000    0    12.011   13.965231   43.367395    2.371320
   5 C     6.0000    0    12.011   12.792673   40.678398    2.581789
   6 C     6.0000    0    12.011   13.964853   38.730776    0.756891
   7 C     6.0000    0    12.011   13.318024   35.905516    1.493427
   8 F     9.0000    0    18.998   15.516554   53.028238    4.742159
   9 F     9.0000    0    18.998   13.770398   52.017270    8.286038
  10 F     9.0000    0    18.998   11.851963   54.509993    5.714920
  11 F     9.0000    0    18.998   10.054512   49.586036    6.025142
  12 F     9.0000    0    18.998   11.162604   51.050505    2.336113
  13 F     9.0000    0    18.998   15.291864   48.483755    2.197352
  14 F     9.0000    0    18.998   15.182233   47.615373    6.223206
  15 F     9.0000    0    18.998   11.358567   44.643703    5.806202
  16 F     9.0000    0    18.998   10.377680   46.020419    2.045554
  17 F     9.0000    0    18.998   14.276522   44.016837   -0.053780
  18 F     9.0000    0    18.998   16.217295   43.421539    3.535662
  19 F     9.0000    0    18.998   13.153111   39.937364    4.983260
  20 F     9.0000    0    18.998   10.308800   40.937959    2.153278
  21 F     9.0000    0    18.998   13.059513   39.273303   -1.586403
  22 F     9.0000    0    18.998   16.484782   39.208195    0.699238
  23 O     8.0000    0    15.999   15.151714   34.472851    1.502470
  24 O     8.0000    0    15.999   11.033649   35.614055    1.896804
  25 O     8.0000    0    15.999    5.711867   35.177966    2.680519
  26 H     1.0000    0     1.008    5.520143   33.392213    2.361048
  27 H     1.0000    0     1.008    7.468709   35.498517    2.308383
  28 H     1.0000    0     1.008   18.238209   32.640569    1.590998
  29 O     8.0000    0    15.999   19.757417   31.630780    1.599046
  30 H     1.0000    0     1.008   19.315740   30.191794    2.629568

--------------------------------
INTERNAL COORDINATES (ANGSTROEM)
--------------------------------
 C      0   0   0     0.000000000000     0.00000000     0.00000000
 C      1   0   0     1.550240967971     0.00000000     0.00000000
 C      2   1   0     1.553417070561   113.55533844     0.00000000
 C      3   2   1     1.555565549319   112.69827683   162.78749478
 C      4   3   2     1.556473604418   112.65593685   162.17204174
 C      5   4   3     1.556347406475   112.95890429   162.16693919
 C      6   5   4     1.542575266263   113.93798420   163.13314068
 C      7   6   5     1.582493305800   112.95775891   164.09560104
 F      1   2   3     1.325454610708   110.89295443    48.99470066
 F      1   2   3     1.322598493786   111.02821211   287.45080856
 F      1   2   3     1.328323151093   108.77385697   168.27294708
 F      2   1   3     1.337808496862   107.07872998   122.02597894
 F      2   1   3     1.335646235786   107.28270546   239.27402584
 F      3   2   1     1.336910437166   107.34054952   284.50021141
 F      3   2   1     1.339194167581   108.08730739    42.06766241
 F      4   3   2     1.336273244456   107.16821115   283.87589533
 F      4   3   2     1.339436884298   107.74698212    41.35047990
 F      5   4   3     1.338702284210   106.82131950   284.02853646
 F      5   4   3     1.341901540589   107.36821732    40.81959257
 F      6   5   4     1.343538328131   106.13743735   284.18106314
 F      6   5   4     1.340878939786   106.56217547    40.50128759
 F      7   6   5     1.359996128008   106.74461671   285.55525164
 F      7   6   5     1.357553010576   106.54195382    39.20780969
 O      8   7   6     1.231407064536   114.34099629   227.66396244
 O      8   7   6     1.237192176224   111.81500307    48.84611502
 O     25   8   7     2.855878164494   176.99440113    20.13066459
 H     26  25   8     0.965328927296    99.05067288   136.27702780
 H     26  25   8     0.965328927795     6.53484144     0.00000000
 H     24   8   7     1.900000000463   172.59922467    24.87320924
 O     29  24   8     0.965328927419   176.86204995   192.48080421
 H     30  29  24     0.965328928642   103.73958492   302.80250789

---------------------------
INTERNAL COORDINATES (A.U.)
---------------------------
 C      0   0   0     0.000000000000     0.00000000     0.00000000
 C      1   0   0     2.929530871051     0.00000000     0.00000000
 C      2   1   0     2.935532835118   113.55533844     0.00000000
 C      3   2   1     2.939592871575   112.69827683   162.78749478
 C      4   3   2     2.941308847027   112.65593685   162.17204174
 C      5   4   3     2.941070367477   112.95890429   162.16693919
 C      6   5   4     2.915044794197   113.93798420   163.13314068
 C      7   6   5     2.990478956726   112.95775891   164.09560104
 F      1   2   3     2.504746217182   110.89295443    48.99470066
 F      1   2   3     2.499348938392   111.02821211   287.45080856
 F      1   2   3     2.510166972913   108.77385697   168.27294708
 F      2   1   3     2.528091678703   107.07872998   122.02597894
 F      2   1   3     2.524005597439   107.28270546   239.27402584
 F      3   2   1     2.526394591825   107.34054952   284.50021141
 F      3   2   1     2.530710216873   108.08730739    42.06766241
 F      4   3   2     2.525190472108   107.16821115   283.87589533
 F      4   3   2     2.531168884996   107.74698212    41.35047990
 F      5   4   3     2.529780692011   106.82131950   284.02853646
 F      5   4   3     2.535826410399   107.36821732    40.81959257
 F      6   5   4     2.538919490593   106.13743735   284.18106314
 F      6   5   4     2.533893974938   106.56217547    40.50128759
 F      7   6   5     2.570020225129   106.74461671   285.55525164
 F      7   6   5     2.565403402268   106.54195382    39.20780969
 O      8   7   6     2.327022111350   114.34099629   227.66396244
 O      8   7   6     2.337954388093   111.81500307    48.84611502
 O     25   8   7     5.396827602739   176.99440113    20.13066459
 H     26  25   8     1.824207301742    99.05067288   136.27702780
 H     26  25   8     1.824207302685     6.53484144     0.00000000
 H     24   8   7     3.590479655325   172.59922467    24.87320924
 O     29  24   8     1.824207301974   176.86204995   192.48080421
 H     30  29  24     1.824207304285   103.73958492   302.80250789

---------------------
BASIS SET INFORMATION
---------------------
There are 4 groups of distinct atoms

 Group   1 Type C   : 11s6p2d1f contracted to 5s3p2d1f pattern {62111/411/11/1}
 Group   2 Type F   : 11s6p2d1f contracted to 5s3p2d1f pattern {62111/411/11/1}
 Group   3 Type O   : 11s6p2d1f contracted to 5s3p2d1f pattern {62111/411/11/1}
 Group   4 Type H   : 5s1p contracted to 3s1p pattern {311/1}

Atom   0C    basis set group =>   1
Atom   1C    basis set group =>   1
Atom   2C    basis set group =>   1
Atom   3C    basis set group =>   1
Atom   4C    basis set group =>   1
Atom   5C    basis set group =>   1
Atom   6C    basis set group =>   1
Atom   7C    basis set group =>   1
Atom   8F    basis set group =>   2
Atom   9F    basis set group =>   2
Atom  10F    basis set group =>   2
Atom  11F    basis set group =>   2
Atom  12F    basis set group =>   2
Atom  13F    basis set group =>   2
Atom  14F    basis set group =>   2
Atom  15F    basis set group =>   2
Atom  16F    basis set group =>   2
Atom  17F    basis set group =>   2
Atom  18F    basis set group =>   2
Atom  19F    basis set group =>   2
Atom  20F    basis set group =>   2
Atom  21F    basis set group =>   2
Atom  22F    basis set group =>   2
Atom  23O    basis set group =>   3
Atom  24O    basis set group =>   3
Atom  25O    basis set group =>   3
Atom  26H    basis set group =>   4
Atom  27H    basis set group =>   4
Atom  28H    basis set group =>   4
Atom  29O    basis set group =>   3
Atom  30H    basis set group =>   4
---------------------------------
AUXILIARY/J BASIS SET INFORMATION
---------------------------------
There are 4 groups of distinct atoms

 Group   1 Type C   : 12s5p4d2f1g contracted to 6s4p3d1f1g pattern {711111/2111/211/2/1}
 Group   2 Type F   : 12s5p4d2f1g contracted to 6s4p3d1f1g pattern {711111/2111/211/2/1}
 Group   3 Type O   : 12s5p4d2f1g contracted to 6s4p3d1f1g pattern {711111/2111/211/2/1}
 Group   4 Type H   : 5s2p1d contracted to 3s1p1d pattern {311/2/1}

Atom   0C    basis set group =>   1
Atom   1C    basis set group =>   1
Atom   2C    basis set group =>   1
Atom   3C    basis set group =>   1
Atom   4C    basis set group =>   1
Atom   5C    basis set group =>   1
Atom   6C    basis set group =>   1
Atom   7C    basis set group =>   1
Atom   8F    basis set group =>   2
Atom   9F    basis set group =>   2
Atom  10F    basis set group =>   2
Atom  11F    basis set group =>   2
Atom  12F    basis set group =>   2
Atom  13F    basis set group =>   2
Atom  14F    basis set group =>   2
Atom  15F    basis set group =>   2
Atom  16F    basis set group =>   2
Atom  17F    basis set group =>   2
Atom  18F    basis set group =>   2
Atom  19F    basis set group =>   2
Atom  20F    basis set group =>   2
Atom  21F    basis set group =>   2
Atom  22F    basis set group =>   2
Atom  23O    basis set group =>   3
Atom  24O    basis set group =>   3
Atom  25O    basis set group =>   3
Atom  26H    basis set group =>   4
Atom  27H    basis set group =>   4
Atom  28H    basis set group =>   4
Atom  29O    basis set group =>   3
Atom  30H    basis set group =>   4


           ************************************************************
           *        Program running with 20 parallel MPI-processes    *
           *              working on a common directory               *
           ************************************************************
------------------------------------------------------------------------------
                             ORCA STARTUP CALCULATIONS
                           -- RI-GTO INTEGRALS CHOSEN --
------------------------------------------------------------------------------
------------------------------------------------------------------------------
                   ___                                                        
                  /   \      - P O W E R E D   B Y -                         
                 /     \                                                     
                 |  |  |   _    _      __       _____    __    __             
                 |  |  |  | |  | |    /  \     |  _  \  |  |  /  |          
                  \  \/   | |  | |   /    \    | | | |  |  | /  /          
                 / \  \   | |__| |  /  /\  \   | |_| |  |  |/  /          
                |  |  |   |  __  | /  /__\  \  |    /   |      \           
                |  |  |   | |  | | |   __   |  |    \   |  |\   \          
                \     /   | |  | | |  |  |  |  | |\  \  |  | \   \       
                 \___/    |_|  |_| |__|  |__|  |_| \__\ |__|  \__/        
                                                                              
                      - O R C A' S   B I G   F R I E N D -                    
                                      &                                       
                       - I N T E G R A L  F E E D E R -                       
                                                                              
 v1 FN, 2020, v2 2021, v3 2022-2024                                           
------------------------------------------------------------------------------


----------------------
SHARK INTEGRAL PACKAGE
----------------------

Number of atoms                             ...     31
Number of basis functions                   ...    861
Number of shells                            ...    313
Maximum angular momentum                    ...      3
Integral batch strategy                     ... SHARK/LIBINT Hybrid
RI-J (if used) integral strategy            ... SPLIT-RIJ (Revised 2003 algorithm where possible)
Printlevel                                  ...      1
Contraction scheme used                     ... SEGMENTED contraction
Prescreening option                         ... SCHWARTZ
   Thresh                                   ... 2.500e-11
   Tcut                                     ... 2.500e-12
   Tpresel                                  ... 2.500e-12 
Coulomb Range Separation                    ... NOT USED
Exchange Range Separation                   ... NOT USED
Multipole approximations                    ... NOT USED
Finite Nucleus Model                        ... NOT USED
CABS basis                                  ... NOT available
Auxiliary Coulomb fitting basis             ... AVAILABLE
   # of basis functions in Aux-J            ...   1367
   # of shells in Aux-J                     ...    425
   Maximum angular momentum in Aux-J        ...      4
Auxiliary J/K fitting basis                 ... NOT available
Auxiliary Correlation fitting basis         ... NOT available
Auxiliary 'external' fitting basis          ... NOT available

Checking pre-screening integrals            ... done (  0.0 sec) Dimension = 313
Check shell pair data                       ... done (  0.0 sec)
Shell pair information
Shell pair cut-off parameter TPreSel        ...   2.5e-12
Total number of shell pairs                 ...     49141
Shell pairs after pre-screening             ...     27192
Total number of primitive shell pairs       ...    159936
Primitive shell pairs kept                  ...     56401
          la=0 lb=0:   5438 shell pairs
          la=1 lb=0:   7571 shell pairs
          la=1 lb=1:   2560 shell pairs
          la=2 lb=0:   3977 shell pairs
          la=2 lb=1:   2845 shell pairs
          la=2 lb=2:    769 shell pairs
          la=3 lb=0:   1804 shell pairs
          la=3 lb=1:   1357 shell pairs
          la=3 lb=2:    701 shell pairs
          la=3 lb=3:    170 shell pairs

Calculating one electron integrals          ... done (  0.0 sec)
Calculating RI/J V-Matrix + Cholesky decomp.... done (  0.1 sec)
Calculating Nuclear repulsion               ... done (  0.0 sec) ENN=   3250.117469041217 Eh

Diagonalization of the overlap matrix:
Smallest eigenvalue                        ... 5.042e-05
Time for diagonalization                   ...    0.145 sec
Threshold for overlap eigenvalues          ... 1.000e-07
Number of eigenvalues below threshold      ... 0
Time for construction of square roots      ...    0.070 sec
Total time needed                          ...    0.222 sec

-------------------
DFT GRID GENERATION
-------------------

General Integration Accuracy     IntAcc      ... 4.388
Radial Grid Type                 RadialGrid  ... OptM3 with GC (2021)
Angular Grid (max. ang.)         AngularGrid ... 4 (Lebedev-302)
Angular grid pruning method      GridPruning ... 4 (adaptive)
Weight generation scheme         WeightScheme... mBecke (2022)
Basis function cutoff            BFCut       ... 1.0000e-11
Integration weight cutoff        WCut        ... 1.0000e-14
Partially contracted basis set               ... off
Rotationally invariant grid construction     ... off
Angular grids for H and He will be reduced by one unit

Total number of grid points                  ...   176704
Total number of batches                      ...     2775
Average number of points per batch           ...       63
Average number of grid points per atom       ...     5700

--------------------
COSX GRID GENERATION
--------------------

GRIDX 1
-------
General Integration Accuracy     IntAcc      ... 3.816
Radial Grid Type                 RadialGrid  ... OptM3 with GC (2021)
Angular Grid (max. ang.)         AngularGrid ... 1 (Lebedev-50)
Angular grid pruning method      GridPruning ... 4 (adaptive)
Weight generation scheme         WeightScheme... mBecke (2022)
Basis function cutoff            BFCut       ... 1.0000e-11
Integration weight cutoff        WCut        ... 1.0000e-14
Partially contracted basis set               ... on
Rotationally invariant grid construction     ... off
Angular grids for H and He will be reduced by one unit

Total number of grid points                  ...    22295
Total number of batches                      ...      187
Average number of points per batch           ...      119
Average number of grid points per atom       ...      719
UseSFitting                                  ... on

GRIDX 2
-------
General Integration Accuracy     IntAcc      ... 4.020
Radial Grid Type                 RadialGrid  ... OptM3 with GC (2021)
Angular Grid (max. ang.)         AngularGrid ... 2 (Lebedev-110)
Angular grid pruning method      GridPruning ... 4 (adaptive)
Weight generation scheme         WeightScheme... mBecke (2022)
Basis function cutoff            BFCut       ... 1.0000e-11
Integration weight cutoff        WCut        ... 1.0000e-14
Partially contracted basis set               ... on
Rotationally invariant grid construction     ... off
Angular grids for H and He will be reduced by one unit

Total number of grid points                  ...    51718
Total number of batches                      ...      420
Average number of points per batch           ...      123
Average number of grid points per atom       ...     1668
UseSFitting                                  ... on

GRIDX 3
-------
General Integration Accuracy     IntAcc      ... 4.338
Radial Grid Type                 RadialGrid  ... OptM3 with GC (2021)
Angular Grid (max. ang.)         AngularGrid ... 3 (Lebedev-194)
Angular grid pruning method      GridPruning ... 4 (adaptive)
Weight generation scheme         WeightScheme... mBecke (2022)
Basis function cutoff            BFCut       ... 1.0000e-11
Integration weight cutoff        WCut        ... 1.0000e-14
Partially contracted basis set               ... on
Rotationally invariant grid construction     ... off
Angular grids for H and He will be reduced by one unit

Total number of grid points                  ...   114352
Total number of batches                      ...      907
Average number of points per batch           ...      126
Average number of grid points per atom       ...     3689
UseSFitting                                  ... on
Initializing property integral containers    ... done (  0.0 sec)

SHARK setup successfully completed in   3.4 seconds

Maximum memory used throughout the entire STARTUP-calculation: 68.0 MB


           ************************************************************
           *        Program running with 20 parallel MPI-processes    *
           *              working on a common directory               *
           ************************************************************
-------------------------------------------------------------------------------
                                 ORCA GUESS
                   Start orbitals & Density for SCF / CASSCF
-------------------------------------------------------------------------------

------------
SCF SETTINGS
------------
Hamiltonian:
 Density Functional     Method          .... DFT(GTOs)
 Exchange Functional    Exchange        .... TPSS
 Correlation Functional Correlation     .... TPSS
 LDA part of GGA corr.  LDAOpt          .... PW91-LDA
 Gradients option       PostSCFGGA      .... off
 Hybrid DFT is turned on
   Fraction HF Exchange ScalHFX         ....  0.100000
   Scaling of DF-GGA-X  ScalDFX         ....  0.900000
   Scaling of DF-GGA-C  ScalDFC         ....  1.000000
   Scaling of DF-LDA-C  ScalLDAC        ....  1.000000
   Perturbative correction              ....  0.000000
   NL short-range parameter             ....  5.200000
 RI-approximation to the Coulomb term is turned on
   Number of AuxJ basis functions       .... 1367
   RIJ-COSX (HFX calculated with COS-X)).... on


General Settings:
 Integral files         IntName         .... rf_mecn_2H2O_opt_TP_sw_003
 Hartree-Fock type      HFTyp           .... RHF
 Total Charge           Charge          ....   -1
 Multiplicity           Mult            ....    1
 Number of Electrons    NEL             ....  220
 Basis Dimension        Dim             ....  861
 Nuclear Repulsion      ENuc            ....   3250.1174690412 Eh

Convergence Acceleration:
 AO-DIIS                CNVDIIS         .... on
   Start iteration      DIISMaxIt       ....     0
   Startup error        DIISStart       ....  0.200000
   # of expansion vecs  DIISMaxEq       ....     5
   Bias factor          DIISBfac        ....   1.050
   Max. coefficient     DIISMaxC        ....  10.000
 MO-DIIS                CNVKDIIS        .... off
 Trust-Rad. Augm. Hess. CNVTRAH         .... auto
   Auto Start mean grad. ratio tolernc. ....  1.125000
   Auto Start start iteration           ....    50
   Auto Start num. interpolation iter.  ....    10
   Max. Number of Micro iterations      ....    24
   Max. Number of Macro iterations      .... Maxiter - #DIIS iter
   Number of Davidson start vectors     ....     2
   Converg. threshold    (grad. norm)   ....   1.000e-05
   Grad. Scal. Fac. for Micro threshold ....   0.100
   Minimum threshold for Micro iter.    ....   1.000e-02
   NR start threshold (gradient norm)   ....   1.000e-04
   Initial trust radius                 ....   0.400
   Minimum AH scaling param. (alpha)    ....   1.000
   Maximum AH scaling param. (alpha)    .... 1000.000
   Quad. conv. algorithm                .... NR
   White noise on init. David. guess    .... on
   Maximum white noise                  ....   0.010
   Pseudo random numbers                .... off
   Inactive MOs                         .... canonical
   Orbital update algorithm             .... Taylor
   Preconditioner                       .... Diag
   Full preconditioner red. dimension   ....   250
 SOSCF                  CNVSOSCF        .... on
   Start iteration      SOSCFMaxIt      ....   150
   Startup grad/error   SOSCFStart      ....  0.001000
   Hessian update       SOSCFHessUp     .... L-BFGS
 Level Shifting         CNVShift        .... on
   Level shift para.    LevelShift      ....    0.2500
   Turn off err/grad.   ShiftErr        ....    0.0000
 Zerner damping         CNVZerner       .... off
 Static damping         CNVDamp         .... on
   Fraction old density DampFac         ....    0.8500
   Max. Damping (<1)    DampMax         ....    0.9800
   Min. Damping (>=0)   DampMin         ....    0.0000
   Turn off err/grad.   DampErr         ....    0.0300

SCF Procedure:
 Maximum # iterations   MaxIter         ....  1500
 SCF integral mode      SCFMode         .... Direct
   Integral package                     .... SHARK and LIBINT hybrid scheme
 Reset frequency        DirectResetFreq ....    20
 Integral Threshold     Thresh          ....  2.500e-11 Eh
 Primitive CutOff       TCut            ....  2.500e-12 Eh

Convergence Tolerance:
 Convergence Check Mode ConvCheckMode   .... Total+1el-Energy
 Convergence forced     ConvForced      .... 0
 Energy Change          TolE            ....  1.000e-08 Eh
 1-El. energy change                    ....  1.000e-05 Eh
 Orbital Gradient       TolG            ....  1.000e-05
 Orbital Rotation angle TolX            ....  1.000e-05
 DIIS Error             TolErr          ....  5.000e-07

------------------------------
INITIAL GUESS: MODEL POTENTIAL
------------------------------
Loading Hartree-Fock densities                     ... done
Calculating cut-offs                               ... done
Initializing the effective Hamiltonian             ... done
Setting up the integral package (SHARK)            ... done
Starting the Coulomb interaction                   ... done (   0.2 sec)
Making the grid                                    ... done (   0.4 sec)
Mapping shells                                     ... done
Starting the XC term evaluation                    ... done (   0.1 sec)
  promolecular density results
     # of electrons  =    218.998411492
     EX              =   -224.782579629
     EC              =     -7.659009825
     EX+EC           =   -232.441589455
Transforming the Hamiltonian                       ... done (   0.1 sec)
Diagonalizing the Hamiltonian                      ... done (   0.2 sec)
Back transforming the eigenvectors                 ... done (   0.0 sec)
Now organizing SCF variables                       ... done
                      ------------------
                      INITIAL GUESS DONE (   1.1 sec)
                      ------------------
             **** ENERGY FILE WAS UPDATED (rf_mecn_2H2O_opt_TP_sw_003.en.tmp) ****
Finished Guess after   1.7 sec
Maximum memory used throughout the entire GUESS-calculation: 56.2 MB


           ************************************************************
           *        Program running with 20 parallel MPI-processes    *
           *              working on a common directory               *
           ************************************************************

-------------------------------------------------------------------------------------------
                                      ORCA LEAN-SCF
                              memory conserving SCF solver
-------------------------------------------------------------------------------------------

--------------------
CPCM SOLVATION MODEL
--------------------
CPCM parameters:
  Epsilon                                         ...      35.6880
  Refrac                                          ...       1.3442
  Rsolv                                           ...       1.3000
  Surface type                                    ... GAUSSIAN VDW
  Discretization scheme                           ... Constant charge density
    Threshold for H atoms                         ...       5.0000 (charges/Ang^2)
    Threshold for non-H atoms                     ...       5.0000 (charges/Ang^2)
  Epsilon function type                           ...         CPCM
Solvent:                                          ... ACETONITRILE
SMD-CDS solvent descriptors:
  Soln                                            ...       1.3442
  Soln25                                          ...       1.3416
  Sola                                            ...       0.0700
  Solb                                            ...       0.3200
  Solg                                            ...      41.2500
  Solc                                            ...       0.0000
  Solh                                            ...       0.0000
Radii:
  Scheme                                          ... Element-dependent radii
  Radius for C  used is    3.4960 Bohr (=   1.8500 Ang.)
  Radius for F  used is    3.2692 Bohr (=   1.7300 Ang.)
  Radius for O  used is    4.0969 Bohr (=   2.1680 Ang.)
  Radius for H  used is    2.2677 Bohr (=   1.2000 Ang.)
Calculating surface                               ...        done! (  0.0s)
Cavity surface points                             ...         2638
Cavity Volume                                     ...    2625.5818
Cavity Surface-area                               ...    1382.6254
Calculating surface distance matrix               ...        done! (  0.1s)
Performing Cholesky decomposition & store         ...        done! (  0.1s)
Overall time for CPCM initialization              ...                 0.2s

----------------------------------------D-I-I-S--------------------------------------------
Iteration    Energy (Eh)           Delta-E    RMSDP     MaxDP     DIISErr   Damp  Time(sec)
-------------------------------------------------------------------------------------------
               ***  Starting incremental Fock matrix formation  ***
    1    -2106.1983374992246354     0.00e+00  4.92e-04  7.55e-02  3.25e-01  0.850   6.9
Warning: op=0 Small HOMO/LUMO gap (   0.069) - skipping pre-diagonalization
         Will do a full diagonalization
    2    -2106.3860400935559483    -1.88e-01  6.41e-04  1.52e-01  2.27e-01  0.850   4.2
                               ***Turning on AO-DIIS***
    3    -2106.4880936488566476    -1.02e-01  3.17e-04  6.98e-02  1.39e-01  0.850   3.8
    4    -2106.5492228872321903    -6.11e-02  1.65e-04  2.64e-02  1.04e-01  0.850   3.7
    5    -2106.5925423531784872    -4.33e-02  1.02e-04  7.16e-03  8.46e-02  0.850   3.7
    6    -2106.6267043195634869    -3.42e-02  7.79e-05  7.08e-03  7.18e-02  0.850   3.5
    7    -2106.6549826873510938    -2.83e-02  6.77e-05  6.57e-03  6.17e-02  0.850   3.4
    8    -2106.6787741451839793    -2.38e-02  5.93e-05  5.79e-03  5.24e-02  0.850   3.4
    9    -2106.6986073525881693    -1.98e-02  5.07e-05  4.93e-03  4.36e-02  0.850   3.4
   10    -2106.7150616357416766    -1.65e-02  4.27e-05  4.17e-03  3.61e-02  0.850   3.3
   11    -2106.7287545877684352    -1.37e-02  3.60e-05  3.55e-03  3.00e-02  0.850   3.3
   12    -2106.7402050069299548    -1.15e-02  3.04e-05  3.04e-03  2.51e-02  0.850   3.2
   13    -2106.7498156239466880    -9.61e-03  1.73e-04  1.74e-02  2.11e-02  0.000   3.2
   14    -2106.8023532070351393    -5.25e-02  1.15e-05  2.19e-03  1.94e-03  0.000   3.8
                              *** Initializing SOSCF ***
---------------------------------------S-O-S-C-F--------------------------------------
Iteration    Energy (Eh)           Delta-E    RMSDP     MaxDP     MaxGrad    Time(sec)
--------------------------------------------------------------------------------------
   15    -2106.8023738662845972    -2.07e-05  6.30e-06  1.29e-03  5.53e-04     3.3
               *** Restarting incremental Fock matrix formation ***
   16    -2106.8023528631288173     2.10e-05  5.40e-06  5.89e-04  7.99e-05     6.9
   17    -2106.8023526098354523     2.53e-07  1.28e-06  1.25e-04  1.37e-04     3.8
   18    -2106.8023531477315373    -5.38e-07  6.05e-07  1.50e-04  8.54e-06     3.4
   19    -2106.8023531634275969    -1.57e-08  3.19e-07  7.61e-05  1.24e-05     2.9
   20    -2106.8023531703424851    -6.91e-09  1.83e-07  2.83e-05  1.26e-06     2.7
                 **** Energy Check signals convergence ****

               *****************************************************
               *                     SUCCESS                       *
               *           SCF CONVERGED AFTER  20 CYCLES          *
               *****************************************************

Recomputing exchange energy using gridx3       ... done (    8.700 sec)
Old exchange energy                            :    -22.718300323 Eh
New exchange energy                            :    -22.718291493 Eh
Exchange energy change after final integration :      0.000008830 Eh
Total energy after final integration           :  -2106.802344340 Eh

SMD CDS free energy correction energy :                 2.87112     Kcal/mol
Total Energy after SMD CDS correction =             -2106.797768912 Eh
             **** ENERGY FILE WAS UPDATED (rf_mecn_2H2O_opt_TP_sw_003.en.tmp) ****

----------------
TOTAL SCF ENERGY
----------------

Total Energy       :      -2106.79776891202346 Eh          -57328.88184 eV

Components:
Nuclear Repulsion  :       3250.11746904121674 Eh           88440.19255 eV
Electronic Energy  :      -5356.84390695691491 Eh         -145767.13337 eV
One Electron Energy:      -9424.82582353567523 Eh         -256462.54896 eV
Two Electron Energy:       4067.98191657876032 Eh          110695.41560 eV
CPCM Dielectric    :         -0.07591525464410 Eh              -2.06576 eV
SMD CDS (Gcds)     :          0.00457542783860 Eh               0.12450 eV

Virial components:
Potential Energy   :      -4207.08361479560153 Eh         -114480.56524 eV
Kinetic Energy     :       2100.28584588357762 Eh           57151.68340 eV
Virial Ratio       :          2.00310049369766

DFT components:
N(Alpha)           :      109.999962242489 electrons
N(Beta)            :      109.999962242489 electrons
N(Total)           :      219.999924484977 electrons
E(X)               :     -206.407485153566 Eh       
E(C)               :       -7.726452238218 Eh       
E(XC)              :     -214.133937391784 Eh       

CPCM Solvation Model Properties:
Surface-charge          :          0.99040502080724
Corrected charge        :          1.00000000000000
Outlying charge corr.   :          0.00000448037678 Eh               0.00012 eV
Free-energy (cav+disp)  :          0.00457542783860 Eh               0.12450 eV

---------------
SCF CONVERGENCE
---------------

  Last Energy change         ...    6.9149e-09  Tolerance :   1.0000e-08
  Last MAX-Density change    ...    2.8293e-05  Tolerance :   1.0000e-07
  Last RMS-Density change    ...    1.8316e-07  Tolerance :   5.0000e-09
  Last DIIS Error            ...    5.5322e-04  Tolerance :   5.0000e-07
  Last Orbital Gradient      ...    1.2614e-06  Tolerance :   1.0000e-05
  Last Orbital Rotation      ...    4.2828e-06  Tolerance :   1.0000e-05


----------------
ORBITAL ENERGIES
----------------

  NO   OCC          E(Eh)            E(eV) 
   0   2.0000     -24.659018      -671.0060 
   1   2.0000     -24.658208      -670.9839 
   2   2.0000     -24.658011      -670.9786 
   3   2.0000     -24.657933      -670.9765 
   4   2.0000     -24.657312      -670.9596 
   5   2.0000     -24.656710      -670.9432 
   6   2.0000     -24.656407      -670.9350 
   7   2.0000     -24.655363      -670.9065 
   8   2.0000     -24.655098      -670.8993 
   9   2.0000     -24.649942      -670.7590 
  10   2.0000     -24.649883      -670.7574 
  11   2.0000     -24.640702      -670.5076 
  12   2.0000     -24.640345      -670.4979 
  13   2.0000     -24.620133      -669.9479 
  14   2.0000     -24.619553      -669.9321 
  15   2.0000     -19.023246      -517.6488 
  16   2.0000     -19.022910      -517.6397 
  17   2.0000     -19.007977      -517.2333 
  18   2.0000     -19.006117      -517.1827 
  19   2.0000     -10.389167      -282.7036 
  20   2.0000     -10.336301      -281.2650 
  21   2.0000     -10.335614      -281.2464 
  22   2.0000     -10.333274      -281.1827 
  23   2.0000     -10.326492      -280.9981 
  24   2.0000     -10.313484      -280.6442 
  25   2.0000     -10.281080      -279.7624 
  26   2.0000     -10.207031      -277.7474 
  27   2.0000      -1.327543       -36.1243 
  28   2.0000      -1.304981       -35.5103 
  29   2.0000      -1.289476       -35.0884 
  30   2.0000      -1.280952       -34.8565 
  31   2.0000      -1.277587       -34.7649 
  32   2.0000      -1.267327       -34.4857 
  33   2.0000      -1.242164       -33.8010 
  34   2.0000      -1.240856       -33.7654 
  35   2.0000      -1.234085       -33.5811 
  36   2.0000      -1.232053       -33.5259 
  37   2.0000      -1.226786       -33.3826 
  38   2.0000      -1.223275       -33.2870 
  39   2.0000      -1.219800       -33.1924 
  40   2.0000      -1.210114       -32.9289 
  41   2.0000      -1.184414       -32.2295 
  42   2.0000      -1.020029       -27.7564 
  43   2.0000      -0.962154       -26.1816 
  44   2.0000      -0.961219       -26.1561 
  45   2.0000      -0.940717       -25.5982 
  46   2.0000      -0.823282       -22.4026 
  47   2.0000      -0.801814       -21.8185 
  48   2.0000      -0.773112       -21.0374 
  49   2.0000      -0.735162       -20.0048 
  50   2.0000      -0.692069       -18.8321 
  51   2.0000      -0.662927       -18.0392 
  52   2.0000      -0.646355       -17.5882 
  53   2.0000      -0.625526       -17.0214 
  54   2.0000      -0.620710       -16.8904 
  55   2.0000      -0.612436       -16.6652 
  56   2.0000      -0.604524       -16.4499 
  57   2.0000      -0.600139       -16.3306 
  58   2.0000      -0.598909       -16.2971 
  59   2.0000      -0.586144       -15.9498 
  60   2.0000      -0.582778       -15.8582 
  61   2.0000      -0.579000       -15.7554 
  62   2.0000      -0.571096       -15.5403 
  63   2.0000      -0.559967       -15.2375 
  64   2.0000      -0.557740       -15.1769 
  65   2.0000      -0.552038       -15.0217 
  66   2.0000      -0.547259       -14.8917 
  67   2.0000      -0.529696       -14.4138 
  68   2.0000      -0.491435       -13.3726 
  69   2.0000      -0.488144       -13.2831 
  70   2.0000      -0.485106       -13.2004 
  71   2.0000      -0.484460       -13.1828 
  72   2.0000      -0.479099       -13.0369 
  73   2.0000      -0.475173       -12.9301 
  74   2.0000      -0.470855       -12.8126 
  75   2.0000      -0.467627       -12.7248 
  76   2.0000      -0.463898       -12.6233 
  77   2.0000      -0.458555       -12.4779 
  78   2.0000      -0.454176       -12.3587 
  79   2.0000      -0.451971       -12.2988 
  80   2.0000      -0.450044       -12.2463 
  81   2.0000      -0.445370       -12.1191 
  82   2.0000      -0.441828       -12.0227 
  83   2.0000      -0.439187       -11.9509 
  84   2.0000      -0.432724       -11.7750 
  85   2.0000      -0.430781       -11.7221 
  86   2.0000      -0.422993       -11.5102 
  87   2.0000      -0.422376       -11.4934 
  88   2.0000      -0.419456       -11.4140 
  89   2.0000      -0.415920       -11.3178 
  90   2.0000      -0.414568       -11.2810 
  91   2.0000      -0.412657       -11.2290 
  92   2.0000      -0.410411       -11.1679 
  93   2.0000      -0.409481       -11.1425 
  94   2.0000      -0.406930       -11.0731 
  95   2.0000      -0.405729       -11.0405 
  96   2.0000      -0.399580       -10.8731 
  97   2.0000      -0.391034       -10.6406 
  98   2.0000      -0.389463       -10.5978 
  99   2.0000      -0.379161       -10.3175 
 100   2.0000      -0.375493       -10.2177 
 101   2.0000      -0.347211        -9.4481 
 102   2.0000      -0.344662        -9.3787 
 103   2.0000      -0.341446        -9.2912 
 104   2.0000      -0.315324        -8.5804 
 105   2.0000      -0.269804        -7.3417 
 106   2.0000      -0.268588        -7.3087 
 107   2.0000      -0.252484        -6.8704 
 108   2.0000      -0.239866        -6.5271 
 109   2.0000      -0.229425        -6.2430 
 110   0.0000      -0.010586        -0.2880 
 111   0.0000       0.001210         0.0329 
 112   0.0000       0.014763         0.4017 
 113   0.0000       0.046111         1.2547 
 114   0.0000       0.051114         1.3909 
 115   0.0000       0.055794         1.5182 
 116   0.0000       0.062612         1.7038 
 117   0.0000       0.091710         2.4956 
 118   0.0000       0.100181         2.7261 
 119   0.0000       0.103704         2.8219 
 120   0.0000       0.113855         3.0981 
*Only the first 10 virtual orbitals were printed.

                    ********************************
                    * MULLIKEN POPULATION ANALYSIS *
                    ********************************

-----------------------
MULLIKEN ATOMIC CHARGES
-----------------------
   0 C :    0.403891
   1 C :    0.287202
   2 C :    0.264544
   3 C :    0.287182
   4 C :    0.288022
   5 C :    0.303201
   6 C :    0.273827
   7 C :    0.219324
   8 F :   -0.134228
   9 F :   -0.131694
  10 F :   -0.134172
  11 F :   -0.144468
  12 F :   -0.142032
  13 F :   -0.145945
  14 F :   -0.147609
  15 F :   -0.146700
  16 F :   -0.148847
  17 F :   -0.151740
  18 F :   -0.154269
  19 F :   -0.168500
  20 F :   -0.162143
  21 F :   -0.193565
  22 F :   -0.188377
  23 O :   -0.475754
  24 O :   -0.499046
  25 O :   -0.728360
  26 H :    0.339901
  27 H :    0.360368
  28 H :    0.357664
  29 O :   -0.728640
  30 H :    0.340963
Sum of atomic charges:   -1.0000000

--------------------------------
MULLIKEN REDUCED ORBITAL CHARGES
--------------------------------
  0 C s       :     3.011762  s :     3.011762
      pz      :     0.690021  p :     2.172531
      px      :     0.685081
      py      :     0.797429
      dz2     :     0.067795  d :     0.369981
      dxz     :     0.082996
      dyz     :     0.078220
      dx2y2   :     0.072979
      dxy     :     0.067990
      f0      :     0.006342  f :     0.041834
      f+1     :     0.009121
      f-1     :     0.005154
      f+2     :     0.003267
      f-2     :     0.006158
      f+3     :     0.004625
      f-3     :     0.007167

  1 C s       :     3.094431  s :     3.094431
      pz      :     0.643857  p :     2.283897
      px      :     0.736153
      py      :     0.903888
      dz2     :     0.074775  d :     0.304847
      dxz     :     0.065772
      dyz     :     0.060907
      dx2y2   :     0.042360
      dxy     :     0.061034
      f0      :     0.005310  f :     0.029623
      f+1     :     0.006289
      f-1     :     0.003126
      f+2     :     0.004912
      f-2     :     0.004338
      f+3     :     0.002891
      f-3     :     0.002758

  2 C s       :     3.128688  s :     3.128688
      pz      :     0.600944  p :     2.265989
      px      :     0.735166
      py      :     0.929880
      dz2     :     0.082431  d :     0.311227
      dxz     :     0.057723
      dyz     :     0.070322
      dx2y2   :     0.036555
      dxy     :     0.064195
      f0      :     0.006634  f :     0.029552
      f+1     :     0.004423
      f-1     :     0.003583
      f+2     :     0.005172
      f-2     :     0.005292
      f+3     :     0.002280
      f-3     :     0.002169

  3 C s       :     3.120829  s :     3.120829
      pz      :     0.636273  p :     2.251517
      px      :     0.723850
      py      :     0.891394
      dz2     :     0.079600  d :     0.310934
      dxz     :     0.065240
      dyz     :     0.060156
      dx2y2   :     0.043549
      dxy     :     0.062389
      f0      :     0.005522  f :     0.029539
      f+1     :     0.006099
      f-1     :     0.003064
      f+2     :     0.004866
      f-2     :     0.004528
      f+3     :     0.002709
      f-3     :     0.002752

  4 C s       :     3.125507  s :     3.125507
      pz      :     0.624183  p :     2.250111
      px      :     0.703626
      py      :     0.922302
      dz2     :     0.065357  d :     0.307023
      dxz     :     0.072175
      dyz     :     0.066011
      dx2y2   :     0.040973
      dxy     :     0.062508
      f0      :     0.004304  f :     0.029337
      f+1     :     0.008058
      f-1     :     0.003916
      f+2     :     0.003216
      f-2     :     0.003604
      f+3     :     0.002388
      f-3     :     0.003851

  5 C s       :     3.111661  s :     3.111661
      pz      :     0.685948  p :     2.252467
      px      :     0.661046
      py      :     0.905473
      dz2     :     0.059764  d :     0.303443
      dxz     :     0.078651
      dyz     :     0.052607
      dx2y2   :     0.047741
      dxy     :     0.064680
      f0      :     0.005709  f :     0.029227
      f+1     :     0.005662
      f-1     :     0.003854
      f+2     :     0.004256
      f-2     :     0.002153
      f+3     :     0.002811
      f-3     :     0.004783

  6 C s       :     3.128701  s :     3.128701
      pz      :     0.681079  p :     2.298913
      px      :     0.633402
      py      :     0.984432
      dz2     :     0.046140  d :     0.271166
      dxz     :     0.064109
      dyz     :     0.052148
      dx2y2   :     0.049772
      dxy     :     0.058997
      f0      :     0.005766  f :     0.027393
      f+1     :     0.003482
      f-1     :     0.003562
      f+2     :     0.004373
      f-2     :     0.002502
      f+3     :     0.003164
      f-3     :     0.004545

  7 C s       :     3.073666  s :     3.073666
      pz      :     0.817299  p :     2.422333
      px      :     0.721335
      py      :     0.883699
      dz2     :     0.012443  d :     0.259016
      dxz     :     0.071722
      dyz     :     0.017190
      dx2y2   :     0.078105
      dxy     :     0.079556
      f0      :     0.002473  f :     0.025661
      f+1     :     0.002245
      f-1     :     0.001132
      f+2     :     0.002321
      f-2     :     0.002909
      f+3     :     0.007238
      f-3     :     0.007343

  8 F s       :     3.910889  s :     3.910889
      pz      :     1.796596  p :     5.205892
      px      :     1.544836
      py      :     1.864460
      dz2     :     0.002266  d :     0.016657
      dxz     :     0.005380
      dyz     :     0.001038
      dx2y2   :     0.004438
      dxy     :     0.003536
      f0      :     0.000090  f :     0.000790
      f+1     :     0.000137
      f-1     :     0.000014
      f+2     :     0.000188
      f-2     :     0.000099
      f+3     :     0.000133
      f-3     :     0.000131

  9 F s       :     3.909206  s :     3.909206
      pz      :     1.464314  p :     5.204861
      px      :     1.868279
      py      :     1.872267
      dz2     :     0.008056  d :     0.016823
      dxz     :     0.003800
      dyz     :     0.004179
      dx2y2   :     0.000330
      dxy     :     0.000458
      f0      :     0.000333  f :     0.000805
      f+1     :     0.000190
      f-1     :     0.000208
      f+2     :     0.000028
      f-2     :     0.000041
      f+3     :     0.000003
      f-3     :     0.000002

 10 F s       :     3.909623  s :     3.909623
      pz      :     1.886273  p :     5.207193
      px      :     1.732626
      py      :     1.588294
      dz2     :     0.002402  d :     0.016564
      dxz     :     0.001346
      dyz     :     0.002336
      dx2y2   :     0.003994
      dxy     :     0.006485
      f0      :     0.000067  f :     0.000792
      f+1     :     0.000066
      f-1     :     0.000110
      f+2     :     0.000016
      f-2     :     0.000104
      f+3     :     0.000247
      f-3     :     0.000181

 11 F s       :     3.915788  s :     3.915788
      pz      :     1.740440  p :     5.211430
      px      :     1.606703
      py      :     1.864287
      dz2     :     0.002399  d :     0.016509
      dxz     :     0.005763
      dyz     :     0.001772
      dx2y2   :     0.003285
      dxy     :     0.003291
      f0      :     0.000079  f :     0.000741
      f+1     :     0.000153
      f-1     :     0.000026
      f+2     :     0.000171
      f-2     :     0.000141
      f+3     :     0.000076
      f-3     :     0.000095

 12 F s       :     3.913373  s :     3.913373
      pz      :     1.535391  p :     5.211284
      px      :     1.826736
      py      :     1.849157
      dz2     :     0.005860  d :     0.016621
      dxz     :     0.004316
      dyz     :     0.004370
      dx2y2   :     0.000902
      dxy     :     0.001172
      f0      :     0.000184  f :     0.000754
      f+1     :     0.000190
      f-1     :     0.000186
      f+2     :     0.000070
      f-2     :     0.000105
      f+3     :     0.000010
      f-3     :     0.000008

 13 F s       :     3.916306  s :     3.916306
      pz      :     1.620614  p :     5.212273
      px      :     1.715281
      py      :     1.876378
      dz2     :     0.003886  d :     0.016622
      dxz     :     0.006019
      dyz     :     0.002814
      dx2y2   :     0.001832
      dxy     :     0.002071
      f0      :     0.000101  f :     0.000744
      f+1     :     0.000237
      f-1     :     0.000068
      f+2     :     0.000137
      f-2     :     0.000138
      f+3     :     0.000029
      f-3     :     0.000035

 14 F s       :     3.916625  s :     3.916625
      pz      :     1.581761  p :     5.213741
      px      :     1.738989
      py      :     1.892991
      dz2     :     0.004603  d :     0.016505
      dxz     :     0.006008
      dyz     :     0.002804
      dx2y2   :     0.001486
      dxy     :     0.001605
      f0      :     0.000127  f :     0.000738
      f+1     :     0.000268
      f-1     :     0.000070
      f+2     :     0.000124
      f-2     :     0.000109
      f+3     :     0.000018
      f-3     :     0.000022

 15 F s       :     3.915740  s :     3.915740
      pz      :     1.545022  p :     5.213597
      px      :     1.817325
      py      :     1.851250
      dz2     :     0.005596  d :     0.016617
      dxz     :     0.004498
      dyz     :     0.004243
      dx2y2   :     0.000990
      dxy     :     0.001289
      f0      :     0.000169  f :     0.000746
      f+1     :     0.000197
      f-1     :     0.000170
      f+2     :     0.000074
      f-2     :     0.000112
      f+3     :     0.000013
      f-3     :     0.000010

 16 F s       :     3.916154  s :     3.916154
      pz      :     1.721897  p :     5.215507
      px      :     1.620967
      py      :     1.872643
      dz2     :     0.002598  d :     0.016450
      dxz     :     0.005977
      dyz     :     0.001874
      dx2y2   :     0.003015
      dxy     :     0.002987
      f0      :     0.000078  f :     0.000736
      f+1     :     0.000172
      f-1     :     0.000027
      f+2     :     0.000176
      f-2     :     0.000138
      f+3     :     0.000065
      f-3     :     0.000080

 17 F s       :     3.914848  s :     3.914848
      pz      :     1.474726  p :     5.219709
      px      :     1.875303
      py      :     1.869680
      dz2     :     0.007561  d :     0.016443
      dxz     :     0.003414
      dyz     :     0.004527
      dx2y2   :     0.000474
      dxy     :     0.000467
      f0      :     0.000297  f :     0.000739
      f+1     :     0.000152
      f-1     :     0.000213
      f+2     :     0.000036
      f-2     :     0.000037
      f+3     :     0.000003
      f-3     :     0.000002

 18 F s       :     3.915678  s :     3.915678
      pz      :     1.793459  p :     5.221597
      px      :     1.528008
      py      :     1.900130
      dz2     :     0.002057  d :     0.016265
      dxz     :     0.005411
      dyz     :     0.000881
      dx2y2   :     0.004677
      dxy     :     0.003239
      f0      :     0.000081  f :     0.000729
      f+1     :     0.000132
      f-1     :     0.000003
      f+2     :     0.000202
      f-2     :     0.000069
      f+3     :     0.000136
      f-3     :     0.000105

 19 F s       :     3.915767  s :     3.915767
      pz      :     1.491451  p :     5.235999
      px      :     1.879249
      py      :     1.865300
      dz2     :     0.007072  d :     0.016011
      dxz     :     0.003202
      dyz     :     0.004622
      dx2y2   :     0.000626
      dxy     :     0.000490
      f0      :     0.000264  f :     0.000723
      f+1     :     0.000142
      f-1     :     0.000218
      f+2     :     0.000048
      f-2     :     0.000044
      f+3     :     0.000003
      f-3     :     0.000004

 20 F s       :     3.917502  s :     3.917502
      pz      :     1.876987  p :     5.227715
      px      :     1.455753
      py      :     1.894976
      dz2     :     0.002225  d :     0.016195
      dxz     :     0.003675
      dyz     :     0.000256
      dx2y2   :     0.006083
      dxy     :     0.003956
      f0      :     0.000068  f :     0.000731
      f+1     :     0.000136
      f-1     :     0.000012
      f+2     :     0.000118
      f-2     :     0.000019
      f+3     :     0.000214
      f-3     :     0.000165

 21 F s       :     3.913038  s :     3.913038
      pz      :     1.529131  p :     5.264936
      px      :     1.845719
      py      :     1.890087
      dz2     :     0.005877  d :     0.014918
      dxz     :     0.004052
      dyz     :     0.003597
      dx2y2   :     0.000724
      dxy     :     0.000667
      f0      :     0.000195  f :     0.000673
      f+1     :     0.000206
      f-1     :     0.000137
      f+2     :     0.000061
      f-2     :     0.000063
      f+3     :     0.000007
      f-3     :     0.000006

 22 F s       :     3.912040  s :     3.912040
      pz      :     1.890988  p :     5.260461
      px      :     1.478200
      py      :     1.891273
      dz2     :     0.002070  d :     0.015194
      dxz     :     0.003020
      dyz     :     0.000211
      dx2y2   :     0.005765
      dxy     :     0.004128
      f0      :     0.000052  f :     0.000681
      f+1     :     0.000131
      f-1     :     0.000013
      f+2     :     0.000085
      f-2     :     0.000013
      f+3     :     0.000209
      f-3     :     0.000177

[...]

 20 F s       :     3.600192  s :     3.600192
      pz      :     1.802696  p :     5.154016
      px      :     1.531979
      py      :     1.819341
      dz2     :     0.003831  d :     0.030527
      dxz     :     0.006862
      dyz     :     0.000541
      dx2y2   :     0.011807
      dxy     :     0.007487
      f0      :     0.000148  f :     0.001508
      f+1     :     0.000248
      f-1     :     0.000020
      f+2     :     0.000249
      f-2     :     0.000059
      f+3     :     0.000408
      f-3     :     0.000375

 21 F s       :     3.608613  s :     3.608613
      pz      :     1.649530  p :     5.182733
      px      :     1.706462
      py      :     1.826741
      dz2     :     0.005760  d :     0.029774
      dxz     :     0.011048
      dyz     :     0.005141
      dx2y2   :     0.003705
      dxy     :     0.004120
      f0      :     0.000164  f :     0.001453
      f+1     :     0.000419
      f-1     :     0.000111
      f+2     :     0.000300
      f-2     :     0.000295
      f+3     :     0.000089
      f-3     :     0.000074

 22 F s       :     3.609785  s :     3.609785
      pz      :     1.774872  p :     5.184795
      px      :     1.579814
      py      :     1.830109
      dz2     :     0.003042  d :     0.029515
      dxz     :     0.008566
      dyz     :     0.001418
      dx2y2   :     0.009073
      dxy     :     0.007415
      f0      :     0.000134  f :     0.001430
      f+1     :     0.000224
      f-1     :     0.000006
      f+2     :     0.000304
      f-2     :     0.000158
      f+3     :     0.000305
      f-3     :     0.000298

 23 O s       :     3.419232  s :     3.419232
      pz      :     1.447456  p :     4.534056
      px      :     1.507142
      py      :     1.579458
      dz2     :     0.007625  d :     0.062843
      dxz     :     0.012855
      dyz     :     0.004658
      dx2y2   :     0.016938
      dxy     :     0.020766
      f0      :     0.000477  f :     0.005525
      f+1     :     0.000710
      f-1     :     0.000207
      f+2     :     0.000504
      f-2     :     0.000776
      f+3     :     0.001370
      f-3     :     0.001481

 24 O s       :     3.418684  s :     3.418684
      pz      :     1.458844  p :     4.538666
      px      :     1.480859
      py      :     1.598964
      dz2     :     0.007697  d :     0.062953
      dxz     :     0.013446
      dyz     :     0.001598
      dx2y2   :     0.020226
      dxy     :     0.019985
      f0      :     0.000484  f :     0.005512
      f+1     :     0.000807
      f-1     :     0.000171
      f+2     :     0.000597
      f-2     :     0.000285
      f+3     :     0.001542
      f-3     :     0.001626

 25 O s       :     3.469182  s :     3.469182
      pz      :     1.873059  p :     4.869634
      px      :     1.430914
      py      :     1.565660
      dz2     :     0.004758  d :     0.028834
      dxz     :     0.002455
      dyz     :     0.000832
      dx2y2   :     0.011447
      dxy     :     0.009341
      f0      :     0.000185  f :     0.002253
      f+1     :     0.000269
      f-1     :     0.000381
      f+2     :     0.000214
      f-2     :     0.000064
      f+3     :     0.000898
      f-3     :     0.000243

 26 H s       :     0.682827  s :     0.682827
      pz      :     0.045141  p :     0.160336
      px      :     0.038897
      py      :     0.076298

 27 H s       :     0.678226  s :     0.678226
      pz      :     0.048686  p :     0.181525
      px      :     0.098699
      py      :     0.034140

 28 H s       :     0.679573  s :     0.679573
      pz      :     0.046710  p :     0.182932
      px      :     0.100712
      py      :     0.035509

 29 O s       :     3.466585  s :     3.466585
      pz      :     1.850690  p :     4.868023
      px      :     1.585580
      py      :     1.431753
      dz2     :     0.003239  d :     0.028803
      dxz     :     0.003087
      dyz     :     0.004363
      dx2y2   :     0.015718
      dxy     :     0.002395
      f0      :     0.000283  f :     0.002244
      f+1     :     0.000132
      f-1     :     0.000201
      f+2     :     0.000573
      f-2     :     0.000101
      f+3     :     0.000118
      f-3     :     0.000837

 30 H s       :     0.687369  s :     0.687369
      pz      :     0.048869  p :     0.161218
      px      :     0.034243
      py      :     0.078106



                      *****************************
                      * MAYER POPULATION ANALYSIS *
                      *****************************

  NA   - Mulliken gross atomic population
  ZA   - Total nuclear charge
  QA   - Mulliken gross atomic charge
  VA   - Mayer's total valence
  BVA  - Mayer's bonded valence
  FA   - Mayer's free valence

  ATOM       NA         ZA         QA         VA         BVA        FA
  0 C      5.5915     6.0000     0.4085     4.5718     4.5718     0.0000
  1 C      5.7037     6.0000     0.2963     4.2515     4.2515     0.0000
  2 C      5.7274     6.0000     0.2726     4.2255     4.2255     0.0000
  3 C      5.7054     6.0000     0.2946     4.2457     4.2457     0.0000
  4 C      5.7050     6.0000     0.2950     4.2356     4.2356     0.0000
  5 C      5.7355     6.0000     0.2645     4.1590     4.1590    -0.0000
  6 C      5.7085     6.0000     0.2915     4.0261     4.0261    -0.0000
  7 C      5.7135     6.0000     0.2865     4.3971     4.3971     0.0000
  8 F      9.1360     9.0000    -0.1360     1.1889     1.1889    -0.0000
  9 F      9.1330     9.0000    -0.1330     1.1927     1.1927     0.0000
 10 F      9.1327     9.0000    -0.1327     1.1925     1.1925    -0.0000
 11 F      9.1468     9.0000    -0.1468     1.1807     1.1807    -0.0000
 12 F      9.1437     9.0000    -0.1437     1.1822     1.1822     0.0000
 13 F      9.1489     9.0000    -0.1489     1.1812     1.1812     0.0000
 14 F      9.1485     9.0000    -0.1485     1.1795     1.1795     0.0000
 15 F      9.1491     9.0000    -0.1491     1.1792     1.1792    -0.0000
 16 F      9.1499     9.0000    -0.1499     1.1776     1.1776     0.0000
 17 F      9.1528     9.0000    -0.1528     1.1736     1.1736     0.0000
 18 F      9.1563     9.0000    -0.1563     1.1680     1.1680     0.0000
 19 F      9.1658     9.0000    -0.1658     1.1532     1.1532    -0.0000
 20 F      9.1643     9.0000    -0.1643     1.1596     1.1596     0.0000
 21 F      9.1880     9.0000    -0.1880     1.1143     1.1143     0.0000
 22 F      9.1910     9.0000    -0.1910     1.1088     1.1088     0.0000
 23 O      8.4947     8.0000    -0.4947     1.9679     1.9679     0.0000
 24 O      8.5060     8.0000    -0.5060     1.9559     1.9559    -0.0000
 25 O      8.7362     8.0000    -0.7362     1.7215     1.7215    -0.0000
 26 H      0.6669     1.0000     0.3331     0.9030     0.9030    -0.0000
 27 H      0.6476     1.0000     0.3524     0.9410     0.9410    -0.0000
 28 H      0.6538     1.0000     0.3462     0.9528     0.9528     0.0000
 29 O      8.7307     8.0000    -0.7307     1.7383     1.7383     0.0000
 30 H      0.6666     1.0000     0.3334     0.9094     0.9094     0.0000

  Mayer bond orders larger than 0.100000
B(  0-C ,  1-C ) :   0.9711 B(  0-C ,  8-F ) :   1.1585 B(  0-C ,  9-F ) :   1.1712 
B(  0-C , 10-F ) :   1.1630 B(  1-C ,  2-C ) :   0.9437 B(  1-C , 11-F ) :   1.1005 
B(  1-C , 12-F ) :   1.1129 B(  2-C ,  3-C ) :   0.9484 B(  2-C , 13-F ) :   1.0968 
B(  2-C , 14-F ) :   1.1022 B(  3-C ,  4-C ) :   0.9552 B(  3-C , 15-F ) :   1.0942 
B(  3-C , 16-F ) :   1.0935 B(  4-C ,  5-C ) :   0.9447 B(  4-C , 17-F ) :   1.0955 
B(  4-C , 18-F ) :   1.0832 B(  5-C ,  6-C ) :   0.9270 B(  5-C , 19-F ) :   1.0798 
B(  5-C , 20-F ) :   1.0888 B(  6-C ,  7-C ) :   0.8965 B(  6-C , 21-F ) :   1.0641 
B(  6-C , 22-F ) :   1.0522 B(  7-C , 23-O ) :   1.7240 B(  7-C , 24-O ) :   1.7129 
B( 23-O , 28-H ) :   0.1160 B( 24-O , 27-H ) :   0.1079 B( 25-O , 26-H ) :   0.8978 
B( 25-O , 27-H ) :   0.8189 B( 28-H , 29-O ) :   0.8247 B( 29-O , 30-H ) :   0.8981 


-------
TIMINGS
-------

Total SCF time: 0 days 0 hours 0 min 40 sec 

Total time                  ....      40.716 sec
Sum of individual times     ....      39.707 sec  ( 97.5%)

SCF preparation             ....       1.376 sec  (  3.4%)
Fock matrix formation       ....      34.729 sec  ( 85.3%)
  Startup                   ....       0.110 sec  (  0.3% of F)
  Split-RI-J                ....       2.563 sec  (  7.4% of F)
  Chain of spheres X        ....      23.553 sec  ( 67.8% of F)
  XC integration            ....       5.738 sec  ( 16.5% of F)
    Basis function eval.    ....       0.548 sec  (  9.5% of XC)
    Density eval.           ....       1.323 sec  ( 23.1% of XC)
    XC-Functional eval.     ....       0.093 sec  (  1.6% of XC)
    XC-Potential eval.      ....       1.021 sec  ( 17.8% of XC)
  CPCM terms                ....       2.456 sec  (  7.1% of F)
Diagonalization             ....       0.000 sec  (  0.0%)
Density matrix formation    ....       0.372 sec  (  0.9%)
Total Energy calculation    ....       0.193 sec  (  0.5%)
Population analysis         ....       0.639 sec  (  1.6%)
Orbital Transformation      ....       0.293 sec  (  0.7%)
Orbital Orthonormalization  ....       0.000 sec  (  0.0%)
DIIS solution               ....       0.375 sec  (  0.9%)
SOSCF solution              ....       1.731 sec  (  4.3%)
Finished LeanSCF after  41.4 sec

Maximum memory used throughout the entire LEANSCF-calculation: 121.7 MB


-------------------------------------------------------------------------------
                          DFT DISPERSION CORRECTION                            
                                                                               
                              DFTD3 V3.1  Rev 1                                
                          USING Becke-Johnson damping                          
-------------------------------------------------------------------------------
The TPSSH functional is recognized
Active option DFTDOPT                   ...         4   

molecular C6(AA) [au] = 8952.024668 


            DFT-D V3
 parameters
 s6 scaling factor         :     1.0000 
 a1 scaling factor         :     0.4529 
 s8 scaling factor         :     2.2382 
 a2 scaling factor         :     4.6550 
 ad hoc parameters k1-k3   :    16.0000     1.3333    -4.0000 

 Edisp/kcal,au: -22.364448688742  -0.035640013781 
 E6   /kcal   : -11.023689882 
 E8   /kcal   : -11.340758807 
 % E8         :  50.708868191 

-------------------------   ----------------
Dispersion correction           -0.035640014
-------------------------   ----------------


-------------------------   --------------------
FINAL SINGLE POINT ENERGY     -2106.841959915262
-------------------------   --------------------

                                *** OPTIMIZATION RUN DONE ***



           ************************************************************
           *        Program running with 20 parallel MPI-processes    *
           *              working on a common directory               *
           ************************************************************

------------------------------------------------------------------------------
                              ORCA PROPERTY CALCULATIONS
------------------------------------------------------------------------------

GBWName                                 ... rf_mecn_2H2O_opt_TP_sw_003.gbw
Number of atoms                         ...     31
Number of basis functions               ...    861
Max core memory                         ...   8000 MB

Electric properties:
Dipole moment                           ... YES
Quadrupole moment                       ...  NO
Static polarizability (Dipole/Dipole)   ...  NO
Static polarizability (Dipole/Quad.)    ...  NO
Static polarizability (Quad./Quad.)     ...  NO
Static polarizability (Velocity)        ...  NO

Atomic electric properties:
Dipole moment                           ...  NO
Quadrupole moment                       ...  NO
Static polarizability                   ...  NO

Choice of electric origin               ... Center of mass
Position of electric origin             ...    13.190273    43.602124     3.285308

General magnetic properties:
Magnetizability                         ...  NO

EPR properties:
g-Tensor (aka g-matrix)                 ...  NO
Zero-Field splitting spin-orbit         ...  NO
Zero-field splitting spin-spin          ...  NO
Hyperfine couplings                     ...  NO (   0 nuclei)
Quadrupole couplings                    ...  NO (   0 nuclei)
Contact density                         ...  NO (   0 nuclei)

NMR properties:
Chemical shifts                         ...  NO (   0 nuclei)
Spin-rotation constants                 ...  NO (   0 nuclei)
Spin-spin couplings                     ...  NO (   0 nuclei,    0 pairs)

Choice of magnetic origin               ... GIAO
Position of magnetic origin             ...     0.000000     0.000000     0.000000

Properties with geometric perturbations:
SCF Hessian                             ...  NO
IR spectrum                             ...  NO
VCD spectrum                            ...  NO
X-ray spectroscopy properties:
SCF XES/XAS/RIXS spectra                ...  NO


-------------
DIPOLE MOMENT
-------------

Method             : SCF
Type of density    : Electron Density
Multiplicity       :   1
Irrep              :   0
Energy             : -2106.8063199014814018 Eh
Relativity type    : 
Basis              : AO
                                X                 Y                 Z
Electronic contribution:      2.660181897      38.087241520       6.575856298
Nuclear contribution   :     -2.482291573     -30.215526733      -5.482800692
                        -----------------------------------------
Total Dipole Moment    :      0.177890324       7.871714787       1.093055606
                        -----------------------------------------
Magnitude (a.u.)       :      7.949233247
Magnitude (Debye)      :     20.205345168



--------------------
Rotational spectrum 
--------------------
 
Rotational constants in cm-1:             0.013190             0.003225             0.002949 
Rotational constants in MHz :           395.429177            96.669505            88.403280 

Dipole components along the rotational axes: 
x,y,z [a.u.] :     7.874790    -0.603245    -0.902269 
x,y,z [Debye]:    20.016125    -1.533327    -2.293385 

 

Dipole moment calculation done in   0.2 sec 

Maximum memory used throughout the entire PROP-calculation: 69.1 MB

--------------------------------
SUGGESTED CITATIONS FOR THIS RUN
--------------------------------

Below you find a list of papers that are relevant to this ORCA run
We neither can nor want to force you to cite these papers, but we appreciate if you do
You receive ORCA, which is the product of decades of hard work by many enthusiastic individuals, for free
The only thing we kindly ask in return is that you cite our papers,
We deeply appreciate it, if you show your appreciation for ORCA by not just citing the generic ORCA reference.

Please note that relegating all ORCA citations to the supporting information does *not* help us.
SI sections are not indexed - citations you put there will not count into any citation statistics
But we need these citations in order to attract the funding resources that allow us to do what we are doing

Therefore, if you are a happy ORCA user, please consider citing a few of the papers listed below in the main body of your paper

In addition to the list printed below, the program has created the file rf_mecn_2H2O_opt_TP_sw_003.bibtex that contains the list in bibtex format
You can import this file easily into all common literature databanks and citation aid programs


List of essential papers. We consider these as the minimum necessary citations

  1. Neese,F.
     Software update: the ORCA program system, version 5.0
     WIRES Comput. Molec. Sci., 2022 12(1)e1606
     doi.org/10.1002/wcms.1606

List of papers to cite with high priority. The work reported in these papers was absolutely
necessary for this run to complete.
Our perspective: the developers of density functionals and basis sets usually get cited in chemistry papers
Good! But without the algorithms to do something with them, the functionals or basis sets would not do anything.
Hence, in our opinion, the algorithm design and method developments papers are equally worthy of getting cited

  1. Neese,F.
     An improvement of the resolution of the identity approximation for the formation of the Coulomb matrix
     J. Comp. Chem., 2003 24(14)1740-1747
     doi.org/10.1002/jcc.10318
  2. Neese,F.; Wennmohs,F.; Hansen,A.; Becker,U.
     Efficient, approximate and parallel Hartree-Fock and hybrid DFT calculations. A 'chain-of-spheres' algorithm for the Hartree-Fock exchange
     Chem. Phys., 2009 356(1-3)98-109
     doi.org/10.1016/j.chemphys.2008.10.036
  3. Garcia-Rates,M.; Neese,F.
     Effect of the Solute Cavity on the Solvation Energy and its Derivatives within the Framework of the Gaussian Charge Scheme
     J. Comput. Chem., 2020 41 922-939
     doi.org/10.1002/jcc.26139
  4. Helmich-Paris,B.; de Souza,B.; Neese,F.; Izsák,R.
     An improved chain of spheres for exchange algorithm
     J. Chem. Phys., 2021 155 104109
     doi.org/doi: 10.1063/5.0058766.
  5. Neese,F.
     The SHARK Integral Generation and Digestion System
     J. Comp. Chem., 2022  1-16
     doi.org/10.1002/jcc.26942
  6. Grimme,S.; Antony,J.; Ehrlich,S.; Krieg,H.
     A consistent and accurate ab initio parametrization of density functional dispersion correction (DFT-D) for the 94 elements H-Pu
     J. Chem. Phys., 2010 132 154104
     doi.org/10.1063/1.3382344
  7. Grimme,S.; Ehrlich,S.; Goerigk,L.
     Effect of the damping function in dispersion corrected density functional theory
     J. Comput. Chem., 2011 32(7)1456-1465
     doi.org/10.1002/jcc.21759

List of suggested additional citations. These are papers that are important in the 'surrounding' of 
of this run, or papers that preceded the highly important papers. If you like your results we are grateful for a citation.

  1. Izsak,R.; Neese,F.
     An overlap fitted chain of spheres exchange method
     J. Chem. Phys., 2011 135 144105
     doi.org/10.1063/1.3646921
  2. Izsak,R.; Hansen,A.; Neese,F.
     The resolution of identity and chain of spheres approximations for the LPNO-CCSD singles Fock term
     Molec. Phys., 2012 110 2413-2417
     doi.org/10.1080/00268976.2012.687466
  3. Neese,F.
     The ORCA program system
     WIRES Comput. Molec. Sci., 2012 2(1)73-78
     doi.org/10.1002/wcms.81
  4. Izsak,R.; Neese,F.; Klopper,W.
     Robust fitting techniques in the chain of spheres approximation to the Fock exchange: The role of the complementary space
     J. Chem. Phys., 2013 139 
     doi.org/10.1063/1.4819264
  5. Neese,F.
     Software update: the ORCA program system, version 4.0
     WIRES Comput. Molec. Sci., 2018 8(1)1-6
     doi.org/10.1002/wcms.1327
  6. Neese,F.; Wennmohs,F.; Becker,U.; Riplinger,C.
     The ORCA quantum chemistry program package
     J. Chem. Phys., 2020 152 Art. No. L224108
     doi.org/10.1063/5.0004608

List of optional additional citations

  1. Neese,F.
     Approximate second-order SCF convergence for spin unrestricted wavefunctions
     Chem. Phys. Lett., 2000 325(1-3)93-98
     doi.org/10.1016/s0009-2614(00)00662-x

Timings for individual modules:

Sum of individual times          ...     5612.814 sec (=  93.547 min)
Startup calculation              ...      290.823 sec (=   4.847 min)   5.2 %
SCF iterations                   ...     3905.459 sec (=  65.091 min)  69.6 %
Property calculations            ...        0.987 sec (=   0.016 min)   0.0 %
SCF Gradient evaluation          ...     1413.913 sec (=  23.565 min)  25.2 %
Geometry relaxation              ...        1.632 sec (=   0.027 min)   0.0 %
                             ****ORCA TERMINATED NORMALLY****
TOTAL RUN TIME: 0 days 1 hours 34 minutes 20 seconds 547 msec
