
                                 *****************
                                 * O   R   C   A *
                                 *****************

                                            #,                                       
                                            ###                                      
                                            ####                                     
                                            #####                                    
                                            ######                                   
                                           ########,                                 
                                     ,,################,,,,,                         
                               ,,#################################,,                 
                          ,,##########################################,,             
                       ,#########################################, ''#####,          
                    ,#############################################,,   '####,        
                  ,##################################################,,,,####,       
                ,###########''''           ''''###############################       
              ,#####''   ,,,,##########,,,,          '''####'''          '####       
            ,##' ,,,,###########################,,,                        '##       
           ' ,,###''''                  '''############,,,                           
         ,,##''                                '''############,,,,        ,,,,,,###''
      ,#''                                            '''#######################'''  
     '                                                          ''''####''''         
             ,#######,   #######,   ,#######,      ##                                
            ,#'     '#,  ##    ##  ,#'     '#,    #''#        ,####,   ,####,        
            ##       ##  ##   ,#'  ##            #'  '#       #'       #'  '#        
            ##       ##  #######   ##           ,######,      #####,   #    #        
            '#,     ,#'  ##    ##  '#,     ,#' ,#      #,     #,   #   #,  ,#        
             '#######'   ##     ##  '#######'  #'      '#     '####' # '####'        



                #########################################################
                #                        -***-                          #
                #          Department of theory and spectroscopy        #
                #                                                       #
                #                      Frank Neese                      #
                #                                                       #
                #     Directorship, Architecture, Infrastructure        #
                #                    SHARK, DRIVERS                     #
                #        Core code/Algorithms in most modules           #
                #                                                       #
                #        Max Planck Institute fuer Kohlenforschung      #
                #                Kaiser Wilhelm Platz 1                 #
                #                 D-45470 Muelheim/Ruhr                 #
                #                      Germany                          #
                #                                                       #
                #                  All rights reserved                  #
                #                        -***-                          #
                #########################################################


                         Program Version 6.0.1  -  RELEASE   -


 With contributions from (in alphabetic order):
[Max-Planck-Institut fuer Kohlenforschung]                               
  Daniel Aravena         : Magnetic Suceptibility                        
  Michael Atanasov       : Ab Initio Ligand Field Theory (pilot matlab implementation)
  Alexander A. Auer      : GIAO ZORA, VPT2 properties, NMR spectrum      
  Ute Becker             : All parallelization in ORCA, NUMFREQ, NUMCALC 
  Giovanni Bistoni       : ED, misc. LED, open-shell LED, HFLD           
  Martin Brehm           : Molecular dynamics                            
  Dmytro Bykov           : pre 5.0 version of the SCF Hessian            
  Marcos Casanova-Páez   : Triplet and SCS-CIS(D). UHF-(DLPNO)-IP/EA/STEOM-CCSD. UHF-CVS-IP/STEOM-CCSD   
  Vijay G. Chilkuri      : MRCI spin determinant printing, contributions to CSF-ICE 
  Pauline Colinet        : FMM embedding                                 
  Dipayan Datta          : RHF DLPNO-CCSD density                        
  Achintya Kumar Dutta   : EOM-CC, STEOM-CC                              
  Nicolas Foglia         : Exact transition moments, OPA infrastructure, MCD improvements    
  Dmitry Ganyushin       : Spin-Orbit,Spin-Spin,Magnetic field MRCI      
  Miquel Garcia-Rates    : C-PCM and meta-GGA Hessian, CCSD/C-PCM, Gaussian charge scheme 
  Tiago L. C. Gouveia    : GS-ROHF, GS-ROCIS                             
  Yang Guo               : DLPNO-NEVPT2, F12-NEVPT2, CIM, IAO-localization        
  Andreas Hansen         : Spin unrestricted coupled pair/coupled cluster methods 
  Ingolf Harden          : AUTO-CI MPn and infrastructure                
  Benjamin Helmich-Paris : MC-RPA, TRAH-(SCF,CASSCF), AVAS, COSX integrals, SCF dyn. polar. 
  Lee Huntington         : MR-EOM, pCC                                   
  Robert Izsak           : Overlap fitted RIJCOSX, COSX-SCS-MP3, EOM     
  Riya Kayal             : Wick's Theorem for AUTO-CI, AUTO-CI UHF-CCSDT 
  Emily Kempfer          : AUTO-CI, RHF CISDT and CCSDT                  
  Christian Kollmar      : KDIIS, OOCD, Brueckner-CCSD(T), CCSD density, CASPT2, CASPT2-K, improved NEVPT2 
  Axel Koslowski         : Symmetry handling                             
  Simone Kossmann        : meta-GGA functionals, TD-DFT gradient, OOMP2, (MP2 Hessian; deprecated post 5.0) 
  Lucas Lang             : DCDCAS                                        
  Marvin Lechner         : AUTO-CI (C++ implementation), FIC-MRCC        
  Spencer Leger          : CASSCF response                               
  Dagmar Lenk            : GEPOL surface, SMD, ORCA-2-JSON               
  Dimitrios Liakos       : Extrapolation schemes; Compound Job, initial MDCI parallelization 
  Dimitrios Manganas     : Further ROCIS development; embedding schemes. LFT, Crystal Embedding 
  Dimitrios Pantazis     : SARC Basis sets                               
  Anastasios Papadopoulos: AUTO-CI, single reference methods and gradients 
  Taras Petrenko         : pre 6.0 DFT Hessian and TD-DFT gradient, (ASA, deprecated), ECA, 1-Electron XAS/XES, NRVS 
  Peter Pinski           : DLPNO-MP2, DLPNO-MP2 Gradient                 
  Christoph Reimann      : Effective Core Potentials                     
  Marius Retegan         : Local ZFS, SOC                                
  Christoph Riplinger    : Optimizer, TS searches, QM/MM, DLPNO-CCSD(T), (RO)-DLPNO pert. Triples 
  Michael Roemelt        : Original ROCIS implementation                 
  Masaaki Saitow         : Open-shell DLPNO-CCSD energy and density      
  Barbara Sandhoefer     : DKH picture change effects                    
  Kantharuban Sivalingam : CASSCF convergence/infrastructure, NEVPT2 and variants, FIC-MRCI 
  Bernardo de Souza      : ESD, SOC TD-DFT                               
  Georgi L. Stoychev     : AutoAux, RI-MP2 NMR, DLPNO-MP2 response, X2C  
  Van Anh Tran           : RI-MP2 g-tensors                              
  Willem Van den Heuvel  : Paramagnetic NMR                              
  Zikuan Wang            : NOTCH, Electric field optimization            
  Frank Wennmohs         : Technical directorship and infrastructure     
  Hang Xu                : AUTO-CI-Response properties                   
                                                                         
[FACCTs GmbH]                                                            
  Markus Bursch, Miquel Garcia-Rates, Christoph Riplinger, Bernardo de Souza, Georgi L. Stoychev 
                                                                 
  APM, Basis sets (HGBS, AHGBS, def-TZVP (Ac-Lr), def2-XVPD (La-Lu)), CI-OPT, improved COSX, DLPNO-Multilevel,           
  DOCKER, DRACO, updates on ESD, GOAT, IRC, LR-CPCM, MBIS, meta-GGA TD-DFT gradient, ML-optimized integration grids, 
  MM, NACMEs, nearIR, NEB, NEB-TS, NL-DFT gradient (VV10), 2- and 3-layer-ONIOM, interface openCOSMO-RS, QMMM,   
  Crystal-QMMM, SF, symmetry and pop. for TD-DFT, r2SCAN hybrids, SOLVATOR                                   
                                                                         
[Other institutions]                                                     
  V. Asgeirsson          : NEB                                           
  Christoph Bannwarth    : sTDA-DFT, sTD-DFT, PBEh-3c, B97-3c, D3        
  Sebastian Ehlert       : rSCAN, r2SCAN, r2SCAN-3c, D4, dhf basis sets  
  Marvin Friede          : D4 for Fr, Ra, Ac-Lr                          
  Lars Goerigk           : TD-DFT with DH, B97 family of functionals     
  Stefan Grimme          : VdW corrections, initial TS optimization, DFT functionals, gCP, sTDA/sTD-DF 
  Waldemar Hujo          : DFT-NL                                        
  H. Jonsson             : NEB                                           
  Holger Kruse           : gCP                                           
  Marcel Mueller         : wB97X-3c, vDZP basis set                      
  Hagen Neugebauer       : wr2SCAN                                       
  Tobias Risthaus        : range-separated hybrid DFT                    
  Lukas Wittmann         : regularized MP2, r2SCAN double-hybrids, wr2SCAN        
                                                                         
We gratefully acknowledge several colleagues who have allowed us to      
interface, adapt or use parts of their codes:                            
  Ed Valeev, F. Pavosevic, A. Kumar             : LibInt (2-el integral package), F12 methods 
  Garnet Chan, S. Sharma, J. Yang, R. Olivares  : DMRG                   
  Ulf Ekstrom                                   : XCFun DFT Library      
  Mihaly Kallay                                 : mrcc  (arbitrary order and MRCC methods)
  Frank Weinhold                                : gennbo (NPA and NBO analysis)           
  Simon Mueller                                 : openCOSMO-RS                            
  Christopher J. Cramer and Donald G. Truhlar   : smd solvation model                     
  S Lehtola, MJT Oliveira, MAL Marques          : LibXC Library                           
  Liviu Ungur et al                             : ANISO software                          


 Your calculation uses the libint2 library for the computation of 2-el integrals
 For citations please refer to: http://libint.valeyev.net

 Your ORCA version has been built with support for libXC version: 6.2.2
 For citations please refer to: https://libxc.gitlab.io

 This ORCA versions uses:
   CBLAS   interface :  Fast vector & matrix operations
   LAPACKE interface :  Fast linear algebra routines
   SCALAPACK package :  Parallel linear algebra routines
   Shared memory     :  Shared parallel matrices
   BLAS/LAPACK       :  OpenBLAS 0.3.27  USE64BITINT DYNAMIC_ARCH NO_AFFINITY SkylakeX SINGLE_THREADED
        Core in use  :  SkylakeX
   Copyright (c) 2011-2014, The OpenBLAS Project


NOTE: MaxCore=8000 MB was set to SCF,MP2,MDCI,CIPSI,MRCI and CIS
      => If you want to overwrite this, your respective input block should be placed after the MaxCore statement
Your calculation utilizes the atom-pairwise dispersion correction
with the Becke-Johnson damping scheme (D3BJ)


Your calculation utilizes the SMD solvation module
Please cite in your paper:
A.V. Marenich, C.J. Cramer, D.G. Truhlar J. Phys. Chem. B, 113, (2009), 6378 

Warning: RI is on but no J-basis has been assigned. Assigning Def2/J (nothing to worry about!)
================================================================================

----- Orbital basis set information -----
Your calculation utilizes the basis: def2-TZVP
   F. Weigend and R. Ahlrichs, Phys. Chem. Chem. Phys. 7, 3297 (2005).

----- AuxJ basis set information -----
Your calculation utilizes the auxiliary basis: def2/J
   F. Weigend, Phys. Chem. Chem. Phys. 8, 1057 (2006).

================================================================================
                                        WARNINGS
                       Please study these warnings very carefully!
================================================================================


WARNING: your system is open-shell and RHF/RKS was chosen
  ===> : WILL SWITCH to UHF/UKS


================================================================================
                                       INPUT FILE
================================================================================
NAME = rf_mecn_freq_TP_C7_D_B.inp
|  1> !TPSSh def2-TZVP freq d3 TightSCF SlowConv defgrid2
|  2>  
|  3> %pal
|  4> nprocs 20
|  5> end
|  6>  
|  7> %scf
|  8> MaxIter 1500
|  9> end
| 10>  
| 11> %maxcore 8000
| 12>  
| 13> !CPCM
| 14> %cpcm smd true
| 15> SMDsolvent "ACETONITRILE"
| 16> end
| 17>  
| 18> * xyz -1 2
| 19> 6        4.690093000      0.312596000     -0.661274000
| 20> 8        5.303574000     -0.541725000     -1.319160000
| 21> 8        4.820626000      1.547284000     -0.571506000
| 22> 6        3.518533000     -0.244747000      0.244574000
| 23> 6        2.118771000      0.265888000     -0.199858000
| 24> 6        0.903578000     -0.562043000      0.335157000
| 25> 6       -0.472005000      0.178085000      0.224862000
| 26> 6       -1.730795000     -0.748919000      0.318031000
| 27> 6       -3.009715000      0.012638000      0.507026000
| 28> 6       -4.087395000      0.187901000     -0.522041000
| 29> 9        3.468799000     -1.613048000      0.243578000
| 30> 9        3.708374000      0.130186000      1.550800000
| 31> 9        1.950574000      1.550726000      0.198229000
| 32> 9        2.068994000      0.234110000     -1.558405000
| 33> 9        0.822684000     -1.721681000     -0.357851000
| 34> 9        1.109548000     -0.857437000      1.639753000
| 35> 9       -0.560287000      1.085440000      1.225167000
| 36> 9       -0.542534000      0.835815000     -0.955164000
| 37> 9       -1.552326000     -1.597504000      1.366648000
| 38> 9       -1.819075000     -1.475281000     -0.823686000
| 39> 9       -3.326059000      0.336551000      1.748509000
| 40> 9       -4.791688000     -0.946082000     -0.740133000
| 41> 9       -4.955230000      1.126444000     -0.120081000
| 42> 9       -3.566838000      0.559131000     -1.704461000
| 43> *
| 44> 
| 45>                          ****END OF INPUT****
================================================================================

                       ****************************
                       * Single Point Calculation *
                       ****************************

---------------------------------
CARTESIAN COORDINATES (ANGSTROEM)
---------------------------------
  C      4.690093    0.312596   -0.661274
  O      5.303574   -0.541725   -1.319160
  O      4.820626    1.547284   -0.571506
  C      3.518533   -0.244747    0.244574
  C      2.118771    0.265888   -0.199858
  C      0.903578   -0.562043    0.335157
  C     -0.472005    0.178085    0.224862
  C     -1.730795   -0.748919    0.318031
  C     -3.009715    0.012638    0.507026
  C     -4.087395    0.187901   -0.522041
  F      3.468799   -1.613048    0.243578
  F      3.708374    0.130186    1.550800
  F      1.950574    1.550726    0.198229
  F      2.068994    0.234110   -1.558405
  F      0.822684   -1.721681   -0.357851
  F      1.109548   -0.857437    1.639753
  F     -0.560287    1.085440    1.225167
  F     -0.542534    0.835815   -0.955164
  F     -1.552326   -1.597504    1.366648
  F     -1.819075   -1.475281   -0.823686
  F     -3.326059    0.336551    1.748509
  F     -4.791688   -0.946082   -0.740133
  F     -4.955230    1.126444   -0.120081
  F     -3.566838    0.559131   -1.704461

----------------------------
CARTESIAN COORDINATES (A.U.)
----------------------------
  NO LB      ZA    FRAG     MASS         X           Y           Z
   0 C     6.0000    0    12.011    8.862991    0.590721   -1.249627
   1 O     8.0000    0    15.999   10.022302   -1.023712   -2.492851
   2 O     8.0000    0    15.999    9.109663    2.923943   -1.079990
   3 C     6.0000    0    12.011    6.649064   -0.462505    0.462178
   4 C     6.0000    0    12.011    4.003897    0.502456   -0.377677
   5 C     6.0000    0    12.011    1.707515   -1.062107    0.633355
   6 C     6.0000    0    12.011   -0.891960    0.336532    0.424928
   7 C     6.0000    0    12.011   -3.270729   -1.415252    0.600991
   8 C     6.0000    0    12.011   -5.687537    0.023882    0.958140
   9 C     6.0000    0    12.011   -7.724057    0.355081   -0.986515
  10 F     9.0000    0    18.998    6.555080   -3.048219    0.460296
  11 F     9.0000    0    18.998    7.007811    0.246016    2.930587
  12 F     9.0000    0    18.998    3.686051    2.930447    0.374599
  13 F     9.0000    0    18.998    3.909832    0.442404   -2.944959
  14 F     9.0000    0    18.998    1.554647   -3.253506   -0.676240
  15 F     9.0000    0    18.998    2.096742   -1.620321    3.098684
  16 F     9.0000    0    18.998   -1.058789    2.051184    2.315230
  17 F     9.0000    0    18.998   -1.025241    1.579461   -1.804998
  18 F     9.0000    0    18.998   -2.933471   -3.018845    2.582590
  19 F     9.0000    0    18.998   -3.437554   -2.787877   -1.556541
  20 F     9.0000    0    18.998   -6.285341    0.635989    3.304203
  21 F     9.0000    0    18.998   -9.054978   -1.787836   -1.398649
  22 F     9.0000    0    18.998   -9.364028    2.128671   -0.226920
  23 F     9.0000    0    18.998   -6.740347    1.056604   -3.220964

--------------------------------
INTERNAL COORDINATES (ANGSTROEM)
--------------------------------
 C      0   0   0     0.000000000000     0.00000000     0.00000000
 O      1   0   0     1.240579420028     0.00000000     0.00000000
 O      1   2   0     1.244809871128   132.02340852     0.00000000
 C      1   2   3     1.582322550036   115.28781558   180.13694981
 C      4   1   2     1.554863840500   112.78270656   244.84507739
 C      5   4   1     1.564737939156   115.31798616   161.75478008
 C      6   5   4     1.565944773387   114.08168808   163.59324328
 C      7   6   5     1.566068051739   114.96838701   161.64550855
 C      8   7   6     1.500441448599   113.08999658   167.52222011
 C      9   8   7     1.500363353344   125.81223056   108.59883257
 F      4   1   2     1.369204911389   112.23931050     6.02663961
 F      4   1   2     1.372166434091   110.26049263   124.18962876
 F      5   4   1     1.355570793659   109.81817442   283.68130391
 F      5   4   1     1.359829968129   108.11003289    41.43472887
 F      6   5   4     1.353352954090   108.94836769   284.91731342
 F      6   5   4     1.353385377249   109.08006695    43.07650281
 F      7   6   5     1.353401973020   108.79071125   282.20995580
 F      7   6   5     1.352791356203   109.69633480    40.60874751
 F      8   7   6     1.360714995462   108.03332440    46.35745782
 F      8   7   6     1.356065198113   108.62058263   288.42039843
 F      9   8   7     1.321466305735   116.53803008   275.01936247
 F     10   9   8     1.352593876447   112.74706477    72.22906248
 F     10   9   8     1.339989698346   109.95375056   191.99070164
 F     10   9   8     1.344212914515   110.94216754   312.31361989

---------------------------
INTERNAL COORDINATES (A.U.)
---------------------------
 C      0   0   0     0.000000000000     0.00000000     0.00000000
 O      1   0   0     2.344355351233     0.00000000     0.00000000
 O      1   2   0     2.352349745233   132.02340852     0.00000000
 C      1   2   3     2.990156275096   115.28781558   180.13694981
 C      4   1   2     2.938266834081   112.78270656   244.84507739
 C      5   4   1     2.956926176362   115.31798616   161.75478008
 C      6   5   4     2.959206762547   114.08168808   163.59324328
 C      7   6   5     2.959439724870   114.96838701   161.64550855
 C      8   7   6     2.835423417836   113.08999658   167.52222011
 C      9   8   7     2.835275839192   125.81223056   108.59883257
 F      4   1   2     2.587422303746   112.23931050     6.02663961
 F      4   1   2     2.593018770591   110.26049263   124.18962876
 F      5   4   1     2.561657555158   109.81817442   283.68130391
 F      5   4   1     2.569706228463   108.11003289    41.43472887
 F      6   5   4     2.557466445763   108.94836769   284.91731342
 F      6   5   4     2.557527716655   109.08006695    43.07650281
 F      7   6   5     2.557559078116   108.79071125   282.20995580
 F      7   6   5     2.556405179559   109.69633480    40.60874751
 F      8   7   6     2.571378687743   108.03332440    46.35745782
 F      8   7   6     2.562591844175   108.62058263   288.42039843
 F      9   8   7     2.497209413045   116.53803008   275.01936247
 F     10   9   8     2.556031996904   112.74706477    72.22906248
 F     10   9   8     2.532213552150   109.95375056   191.99070164
 F     10   9   8     2.540194274114   110.94216754   312.31361989

---------------------
BASIS SET INFORMATION
---------------------
There are 3 groups of distinct atoms

 Group   1 Type C   : 11s6p2d1f contracted to 5s3p2d1f pattern {62111/411/11/1}
 Group   2 Type O   : 11s6p2d1f contracted to 5s3p2d1f pattern {62111/411/11/1}
 Group   3 Type F   : 11s6p2d1f contracted to 5s3p2d1f pattern {62111/411/11/1}

Atom   0C    basis set group =>   1
Atom   1O    basis set group =>   2
Atom   2O    basis set group =>   2
Atom   3C    basis set group =>   1
Atom   4C    basis set group =>   1
Atom   5C    basis set group =>   1
Atom   6C    basis set group =>   1
Atom   7C    basis set group =>   1
Atom   8C    basis set group =>   1
Atom   9C    basis set group =>   1
Atom  10F    basis set group =>   3
Atom  11F    basis set group =>   3
Atom  12F    basis set group =>   3
Atom  13F    basis set group =>   3
Atom  14F    basis set group =>   3
Atom  15F    basis set group =>   3
Atom  16F    basis set group =>   3
Atom  17F    basis set group =>   3
Atom  18F    basis set group =>   3
Atom  19F    basis set group =>   3
Atom  20F    basis set group =>   3
Atom  21F    basis set group =>   3
Atom  22F    basis set group =>   3
Atom  23F    basis set group =>   3
---------------------------------
AUXILIARY/J BASIS SET INFORMATION
---------------------------------
There are 3 groups of distinct atoms

 Group   1 Type C   : 12s5p4d2f1g contracted to 6s4p3d1f1g pattern {711111/2111/211/2/1}
 Group   2 Type O   : 12s5p4d2f1g contracted to 6s4p3d1f1g pattern {711111/2111/211/2/1}
 Group   3 Type F   : 12s5p4d2f1g contracted to 6s4p3d1f1g pattern {711111/2111/211/2/1}

Atom   0C    basis set group =>   1
Atom   1O    basis set group =>   2
Atom   2O    basis set group =>   2
Atom   3C    basis set group =>   1
Atom   4C    basis set group =>   1
Atom   5C    basis set group =>   1
Atom   6C    basis set group =>   1
Atom   7C    basis set group =>   1
Atom   8C    basis set group =>   1
Atom   9C    basis set group =>   1
Atom  10F    basis set group =>   3
Atom  11F    basis set group =>   3
Atom  12F    basis set group =>   3
Atom  13F    basis set group =>   3
Atom  14F    basis set group =>   3
Atom  15F    basis set group =>   3
Atom  16F    basis set group =>   3
Atom  17F    basis set group =>   3
Atom  18F    basis set group =>   3
Atom  19F    basis set group =>   3
Atom  20F    basis set group =>   3
Atom  21F    basis set group =>   3
Atom  22F    basis set group =>   3
Atom  23F    basis set group =>   3


           ************************************************************
           *        Program running with 20 parallel MPI-processes    *
           *              working on a common directory               *
           ************************************************************
------------------------------------------------------------------------------
                             ORCA STARTUP CALCULATIONS
                           -- RI-GTO INTEGRALS CHOSEN --
------------------------------------------------------------------------------
------------------------------------------------------------------------------
                   ___                                                        
                  /   \      - P O W E R E D   B Y -                         
                 /     \                                                     
                 |  |  |   _    _      __       _____    __    __             
                 |  |  |  | |  | |    /  \     |  _  \  |  |  /  |          
                  \  \/   | |  | |   /    \    | | | |  |  | /  /          
                 / \  \   | |__| |  /  /\  \   | |_| |  |  |/  /          
                |  |  |   |  __  | /  /__\  \  |    /   |      \           
                |  |  |   | |  | | |   __   |  |    \   |  |\   \          
                \     /   | |  | | |  |  |  |  | |\  \  |  | \   \       
                 \___/    |_|  |_| |__|  |__|  |_| \__\ |__|  \__/        
                                                                              
                      - O R C A' S   B I G   F R I E N D -                    
                                      &                                       
                       - I N T E G R A L  F E E D E R -                       
                                                                              
 v1 FN, 2020, v2 2021, v3 2022-2024                                           
------------------------------------------------------------------------------


----------------------
SHARK INTEGRAL PACKAGE
----------------------

Number of atoms                             ...     24
Number of basis functions                   ...    744
Number of shells                            ...    264
Maximum angular momentum                    ...      3
Integral batch strategy                     ... SHARK/LIBINT Hybrid
RI-J (if used) integral strategy            ... SPLIT-RIJ (Revised 2003 algorithm where possible)
Printlevel                                  ...      1
Contraction scheme used                     ... SEGMENTED contraction
Prescreening option                         ... SCHWARTZ
   Thresh                                   ... 2.500e-11
   Tcut                                     ... 2.500e-12
   Tpresel                                  ... 2.500e-12 
Coulomb Range Separation                    ... NOT USED
Exchange Range Separation                   ... NOT USED
Multipole approximations                    ... NOT USED
Finite Nucleus Model                        ... NOT USED
CABS basis                                  ... NOT available
Auxiliary Coulomb fitting basis             ... AVAILABLE
   # of basis functions in Aux-J            ...   1176
   # of shells in Aux-J                     ...    360
   Maximum angular momentum in Aux-J        ...      4
Auxiliary J/K fitting basis                 ... NOT available
Auxiliary Correlation fitting basis         ... NOT available
Auxiliary 'external' fitting basis          ... NOT available

Checking pre-screening integrals            ... done (  0.0 sec) Dimension = 264
Check shell pair data                       ... done (  0.0 sec)
Shell pair information
Shell pair cut-off parameter TPreSel        ...   2.5e-12
Total number of shell pairs                 ...     34980
Shell pairs after pre-screening             ...     21873
Total number of primitive shell pairs       ...    115968
Primitive shell pairs kept                  ...     46489
          la=0 lb=0:   4068 shell pairs
          la=1 lb=0:   5956 shell pairs
          la=1 lb=1:   2071 shell pairs
          la=2 lb=0:   3252 shell pairs
          la=2 lb=1:   2415 shell pairs
          la=2 lb=2:    685 shell pairs
          la=3 lb=0:   1489 shell pairs
          la=3 lb=1:   1160 shell pairs
          la=3 lb=2:    625 shell pairs
          la=3 lb=3:    152 shell pairs

Calculating one electron integrals          ... done (  0.0 sec)
Calculating RI/J V-Matrix + Cholesky decomp.... done (  0.1 sec)
Calculating Nuclear repulsion               ... done (  0.0 sec) ENN=   2628.529923096979 Eh

Diagonalization of the overlap matrix:
Smallest eigenvalue                        ... 6.800e-05
Time for diagonalization                   ...    0.140 sec
Threshold for overlap eigenvalues          ... 1.000e-07
Number of eigenvalues below threshold      ... 0
Time for construction of square roots      ...    0.050 sec
Total time needed                          ...    0.197 sec

-------------------
DFT GRID GENERATION
-------------------

General Integration Accuracy     IntAcc      ... 4.388
Radial Grid Type                 RadialGrid  ... OptM3 with GC (2021)
Angular Grid (max. ang.)         AngularGrid ... 4 (Lebedev-302)
Angular grid pruning method      GridPruning ... 4 (adaptive)
Weight generation scheme         WeightScheme... mBecke (2022)
Basis function cutoff            BFCut       ... 1.0000e-11
Integration weight cutoff        WCut        ... 1.0000e-14
Partially contracted basis set               ... off
Rotationally invariant grid construction     ... off
Angular grids for H and He will be reduced by one unit

Total number of grid points                  ...   145490
Total number of batches                      ...     2288
Average number of points per batch           ...       63
Average number of grid points per atom       ...     6062

--------------------
COSX GRID GENERATION
--------------------

GRIDX 1
-------
General Integration Accuracy     IntAcc      ... 3.816
Radial Grid Type                 RadialGrid  ... OptM3 with GC (2021)
Angular Grid (max. ang.)         AngularGrid ... 1 (Lebedev-50)
Angular grid pruning method      GridPruning ... 4 (adaptive)
Weight generation scheme         WeightScheme... mBecke (2022)
Basis function cutoff            BFCut       ... 1.0000e-11
Integration weight cutoff        WCut        ... 1.0000e-14
Partially contracted basis set               ... on
Rotationally invariant grid construction     ... off
Angular grids for H and He will be reduced by one unit

Total number of grid points                  ...    18257
Total number of batches                      ...      153
Average number of points per batch           ...      119
Average number of grid points per atom       ...      761
UseSFitting                                  ... on

GRIDX 2
-------
General Integration Accuracy     IntAcc      ... 4.020
Radial Grid Type                 RadialGrid  ... OptM3 with GC (2021)
Angular Grid (max. ang.)         AngularGrid ... 2 (Lebedev-110)
Angular grid pruning method      GridPruning ... 4 (adaptive)
Weight generation scheme         WeightScheme... mBecke (2022)
Basis function cutoff            BFCut       ... 1.0000e-11
Integration weight cutoff        WCut        ... 1.0000e-14
Partially contracted basis set               ... on
Rotationally invariant grid construction     ... off
Angular grids for H and He will be reduced by one unit

Total number of grid points                  ...    43298
Total number of batches                      ...      351
Average number of points per batch           ...      123
Average number of grid points per atom       ...     1804
UseSFitting                                  ... on

GRIDX 3
-------
General Integration Accuracy     IntAcc      ... 4.338
Radial Grid Type                 RadialGrid  ... OptM3 with GC (2021)
Angular Grid (max. ang.)         AngularGrid ... 3 (Lebedev-194)
Angular grid pruning method      GridPruning ... 4 (adaptive)
Weight generation scheme         WeightScheme... mBecke (2022)
Basis function cutoff            BFCut       ... 1.0000e-11
Integration weight cutoff        WCut        ... 1.0000e-14
Partially contracted basis set               ... on
Rotationally invariant grid construction     ... off
Angular grids for H and He will be reduced by one unit

Total number of grid points                  ...    95994
Total number of batches                      ...      761
Average number of points per batch           ...      126
Average number of grid points per atom       ...     4000
UseSFitting                                  ... on
Initializing property integral containers    ... done (  0.0 sec)

SHARK setup successfully completed in   3.6 seconds

Maximum memory used throughout the entire STARTUP-calculation: 56.9 MB


           ************************************************************
           *        Program running with 20 parallel MPI-processes    *
           *              working on a common directory               *
           ************************************************************
-------------------------------------------------------------------------------
                                 ORCA GUESS
                   Start orbitals & Density for SCF / CASSCF
-------------------------------------------------------------------------------

------------
SCF SETTINGS
------------
Hamiltonian:
 Density Functional     Method          .... DFT(GTOs)
 Exchange Functional    Exchange        .... TPSS
 Correlation Functional Correlation     .... TPSS
 LDA part of GGA corr.  LDAOpt          .... PW91-LDA
 Gradients option       PostSCFGGA      .... off
 Hybrid DFT is turned on
   Fraction HF Exchange ScalHFX         ....  0.100000
   Scaling of DF-GGA-X  ScalDFX         ....  0.900000
   Scaling of DF-GGA-C  ScalDFC         ....  1.000000
   Scaling of DF-LDA-C  ScalLDAC        ....  1.000000
   Perturbative correction              ....  0.000000
   NL short-range parameter             ....  5.200000
 RI-approximation to the Coulomb term is turned on
   Number of AuxJ basis functions       .... 1176
   RIJ-COSX (HFX calculated with COS-X)).... on


General Settings:
 Integral files         IntName         .... rf_mecn_freq_TP_C7_D_B
 Hartree-Fock type      HFTyp           .... UHF
 Total Charge           Charge          ....   -1
 Multiplicity           Mult            ....    2
 Number of Electrons    NEL             ....  191
 Basis Dimension        Dim             ....  744
 Nuclear Repulsion      ENuc            ....   2628.5299230970 Eh

Convergence Acceleration:
 AO-DIIS                CNVDIIS         .... on
   Start iteration      DIISMaxIt       ....     0
   Startup error        DIISStart       ....  0.200000
   # of expansion vecs  DIISMaxEq       ....     5
   Bias factor          DIISBfac        ....   1.050
   Max. coefficient     DIISMaxC        ....  10.000
 MO-DIIS                CNVKDIIS        .... off
 Trust-Rad. Augm. Hess. CNVTRAH         .... auto
   Auto Start mean grad. ratio tolernc. ....  1.125000
   Auto Start start iteration           ....    50
   Auto Start num. interpolation iter.  ....    10
   Max. Number of Micro iterations      ....    24
   Max. Number of Macro iterations      .... Maxiter - #DIIS iter
   Number of Davidson start vectors     ....     2
   Converg. threshold    (grad. norm)   ....   1.000e-05
   Grad. Scal. Fac. for Micro threshold ....   0.100
   Minimum threshold for Micro iter.    ....   1.000e-02
   NR start threshold (gradient norm)   ....   1.000e-04
   Initial trust radius                 ....   0.400
   Minimum AH scaling param. (alpha)    ....   1.000
   Maximum AH scaling param. (alpha)    .... 1000.000
   Quad. conv. algorithm                .... NR
   White noise on init. David. guess    .... on
   Maximum white noise                  ....   0.010
   Pseudo random numbers                .... off
   Inactive MOs                         .... canonical
   Orbital update algorithm             .... Taylor
   Preconditioner                       .... Diag
   Full preconditioner red. dimension   ....   250
 SOSCF                  CNVSOSCF        .... on
   Start iteration      SOSCFMaxIt      ....   150
   Startup grad/error   SOSCFStart      ....  0.001000
   Hessian update       SOSCFHessUp     .... L-BFGS
 Level Shifting         CNVShift        .... on
   Level shift para.    LevelShift      ....    0.2500
   Turn off err/grad.   ShiftErr        ....    0.0000
 Zerner damping         CNVZerner       .... off
 Static damping         CNVDamp         .... on
   Fraction old density DampFac         ....    0.8500
   Max. Damping (<1)    DampMax         ....    0.9800
   Min. Damping (>=0)   DampMin         ....    0.0000
   Turn off err/grad.   DampErr         ....    0.0300

SCF Procedure:
 Maximum # iterations   MaxIter         ....  1500
 SCF integral mode      SCFMode         .... Direct
   Integral package                     .... SHARK and LIBINT hybrid scheme
 Reset frequency        DirectResetFreq ....    20
 Integral Threshold     Thresh          ....  2.500e-11 Eh
 Primitive CutOff       TCut            ....  2.500e-12 Eh

Convergence Tolerance:
 Convergence Check Mode ConvCheckMode   .... Total+1el-Energy
 Convergence forced     ConvForced      .... 0
 Energy Change          TolE            ....  1.000e-08 Eh
 1-El. energy change                    ....  1.000e-05 Eh
 Orbital Gradient       TolG            ....  1.000e-05
 Orbital Rotation angle TolX            ....  1.000e-05
 DIIS Error             TolErr          ....  5.000e-07

------------------------------
INITIAL GUESS: MODEL POTENTIAL
------------------------------
Loading Hartree-Fock densities                     ... done
Calculating cut-offs                               ... done
Initializing the effective Hamiltonian             ... done
Setting up the integral package (SHARK)            ... done
Starting the Coulomb interaction                   ... done (   0.2 sec)
Making the grid                                    ... done (   0.5 sec)
Mapping shells                                     ... done
Starting the XC term evaluation                    ... done (   0.2 sec)
  promolecular density results
     # of electrons  =    190.000738056
     EX              =   -197.179299328
     EC              =     -6.668500904
     EX+EC           =   -203.847800232
Transforming the Hamiltonian                       ... done (   0.1 sec)
Diagonalizing the Hamiltonian                      ... done (   0.1 sec)
Back transforming the eigenvectors                 ... done (   0.0 sec)
Now organizing SCF variables                       ... done
                      ------------------
                      INITIAL GUESS DONE (   1.3 sec)
                      ------------------
             **** ENERGY FILE WAS UPDATED (rf_mecn_freq_TP_C7_D_B.en.tmp) ****
Finished Guess after   2.1 sec
Maximum memory used throughout the entire GUESS-calculation: 45.7 MB


           ************************************************************
           *        Program running with 20 parallel MPI-processes    *
           *              working on a common directory               *
           ************************************************************

-------------------------------------------------------------------------------------------
                                      ORCA LEAN-SCF
                              memory conserving SCF solver
-------------------------------------------------------------------------------------------

--------------------
CPCM SOLVATION MODEL
--------------------
CPCM parameters:
  Epsilon                                         ...      35.6880
  Refrac                                          ...       1.3442
  Rsolv                                           ...       1.3000
  Surface type                                    ... GAUSSIAN VDW
  Discretization scheme                           ... Constant charge density
    Threshold for H atoms                         ...       5.0000 (charges/Ang^2)
    Threshold for non-H atoms                     ...       5.0000 (charges/Ang^2)
  Epsilon function type                           ...         CPCM
Solvent:                                          ... ACETONITRILE
SMD-CDS solvent descriptors:
  Soln                                            ...       1.3442
  Soln25                                          ...       1.3416
  Sola                                            ...       0.0700
  Solb                                            ...       0.3200
  Solg                                            ...      41.2500
  Solc                                            ...       0.0000
  Solh                                            ...       0.0000
Radii:
  Scheme                                          ... Element-dependent radii
  Radius for C  used is    3.4960 Bohr (=   1.8500 Ang.)
  Radius for O  used is    4.0969 Bohr (=   2.1680 Ang.)
  Radius for F  used is    3.2692 Bohr (=   1.7300 Ang.)
Calculating surface                               ...        done! (  0.0s)
Cavity surface points                             ...         2153
Cavity Volume                                     ...    2112.6318
Cavity Surface-area                               ...    1106.4769
Calculating surface distance matrix               ...        done! (  0.0s)
Performing Cholesky decomposition & store         ...        done! (  0.1s)
Overall time for CPCM initialization              ...                 0.2s

----------------------------------------D-I-I-S--------------------------------------------
Iteration    Energy (Eh)           Delta-E    RMSDP     MaxDP     DIISErr   Damp  Time(sec)
-------------------------------------------------------------------------------------------
               ***  Starting incremental Fock matrix formation  ***
    1    -1853.4898018470512397     0.00e+00  2.59e-04  3.77e-02  1.55e-01  0.850   7.6
Warning: op=0 Small HOMO/LUMO gap (   0.049) - skipping pre-diagonalization
         Will do a full diagonalization
    2    -1853.6271612869659293    -1.37e-01  3.57e-04  7.73e-02  1.07e-01  0.850   5.4
                               ***Turning on AO-DIIS***
    3    -1853.7004227699735566    -7.33e-02  1.84e-04  3.72e-02  6.39e-02  0.850   4.7
    4    -1853.7440925625041928    -4.37e-02  9.65e-05  1.47e-02  4.74e-02  0.850   4.4
    5    -1853.7751193106214487    -3.10e-02  5.71e-05  4.67e-03  3.90e-02  0.850   4.3
    6    -1853.7997116560354698    -2.46e-02  4.21e-05  2.74e-03  3.36e-02  0.850   4.3
    7    -1853.8202184455221868    -2.05e-02  3.65e-05  2.87e-03  2.91e-02  0.850   4.2
    8    -1853.8376409501743183    -1.74e-02  2.16e-04  1.70e-02  2.46e-02  0.000   4.1
    9    -1853.9289785224245861    -9.13e-02  2.43e-05  1.77e-03  3.55e-03  0.000   4.4
   10    -1853.9291881966009896    -2.10e-04  1.35e-05  2.00e-03  1.83e-03  0.000   3.9
                              *** Initializing SOSCF ***
---------------------------------------S-O-S-C-F--------------------------------------
Iteration    Energy (Eh)           Delta-E    RMSDP     MaxDP     MaxGrad    Time(sec)
--------------------------------------------------------------------------------------
   11    -1853.9292316153168940    -4.34e-05  6.52e-06  8.27e-04  3.08e-04     4.4
               *** Restarting incremental Fock matrix formation ***
   12    -1853.9292262117260179     5.40e-06  8.13e-06  7.93e-04  5.74e-04     7.4
   13    -1853.9292306442630434    -4.43e-06  6.54e-06  8.04e-04  1.80e-04     4.9
   14    -1853.9292312555307944    -6.11e-07  3.10e-06  3.10e-04  1.77e-04     5.1
   15    -1853.9292321970497142    -9.42e-07  1.14e-06  1.76e-04  2.93e-05     4.7
   16    -1853.9292321562252255     4.08e-08  5.55e-07  5.73e-05  5.78e-05     4.1
   17    -1853.9292322475002948    -9.13e-08  6.07e-07  1.03e-04  1.28e-05     3.8
   18    -1853.9292322309938754     1.65e-08  2.99e-07  4.25e-05  1.14e-05     3.8
   19    -1853.9292322470237195    -1.60e-08  1.42e-07  2.74e-05  1.35e-06     3.5
                  *** Gradient check signals convergence ***

               *****************************************************
               *                     SUCCESS                       *
               *           SCF CONVERGED AFTER  19 CYCLES          *
               *****************************************************

Recomputing exchange energy using gridx3       ... done (    8.604 sec)
Old exchange energy                            :    -19.904076076 Eh
New exchange energy                            :    -19.904066734 Eh
Exchange energy change after final integration :      0.000009343 Eh
Total energy after final integration           :  -1853.929222904 Eh

SMD CDS free energy correction energy :                 3.18554     Kcal/mol
Total Energy after SMD CDS correction =             -1853.924146424 Eh
             **** ENERGY FILE WAS UPDATED (rf_mecn_freq_TP_C7_D_B.en.tmp) ****

----------------
TOTAL SCF ENERGY
----------------

Total Energy       :      -1853.92414642356903 Eh          -50447.84074 eV

Components:
Nuclear Repulsion  :       2628.52992309697947 Eh           71525.93552 eV
Electronic Energy  :      -4482.37455512662382 Eh         -121971.61256 eV
One Electron Energy:      -7832.22210364354396 Eh         -213125.59854 eV
Two Electron Energy:       3349.84754851691969 Eh           91153.98597 eV
CPCM Dielectric    :         -0.08460021737968 Eh              -2.30209 eV
SMD CDS (Gcds)     :          0.00507648081561 Eh               0.13814 eV

Virial components:
Potential Energy   :      -3701.56754243716568 Eh         -100724.77358 eV
Kinetic Energy     :       1847.64339601359688 Eh           50276.93284 eV
Virial Ratio       :          2.00339933042465

DFT components:
N(Alpha)           :       95.999938608410 electrons
N(Beta)            :       94.999934160777 electrons
N(Total)           :      190.999872769188 electrons
E(X)               :     -180.882321843622 Eh       
E(C)               :       -6.715836803184 Eh       
E(XC)              :     -187.598158646806 Eh       

CPCM Solvation Model Properties:
Surface-charge          :          0.99011185397814
Corrected charge        :          1.00000000000000
Outlying charge corr.   :          0.00000536583290 Eh               0.00015 eV
Free-energy (cav+disp)  :          0.00507648081561 Eh               0.13814 eV

---------------
SCF CONVERGENCE
---------------

  Last Energy change         ...    1.6030e-08  Tolerance :   1.0000e-08
  Last MAX-Density change    ...    2.7377e-05  Tolerance :   1.0000e-07
  Last RMS-Density change    ...    1.4157e-07  Tolerance :   5.0000e-09
  Last DIIS Error            ...    3.0793e-04  Tolerance :   5.0000e-07
  Last Orbital Gradient      ...    1.3463e-06  Tolerance :   1.0000e-05
  Last Orbital Rotation      ...    1.8146e-05  Tolerance :   1.0000e-05


----------------------
UHF SPIN CONTAMINATION
----------------------

Warning: in a DFT calculation there is little theoretical justification to 
         calculate <S**2> as in Hartree-Fock theory. We will do it anyways
         but you should keep in mind that the values have only limited relevance

Expectation value of <S**2>     :     0.755341
Ideal value S*(S+1) for S=0.5   :     0.750000
Deviation                       :     0.005341

----------------
ORBITAL ENERGIES
----------------
                 SPIN UP ORBITALS
  NO   OCC          E(Eh)            E(eV) 
   0   1.0000     -24.671324      -671.3409 
   1   1.0000     -24.653717      -670.8617 
   2   1.0000     -24.653124      -670.8456 
   3   1.0000     -24.652979      -670.8417 
   4   1.0000     -24.652879      -670.8389 
   5   1.0000     -24.651812      -670.8099 
   6   1.0000     -24.650765      -670.7814 
   7   1.0000     -24.648714      -670.7256 
   8   1.0000     -24.648388      -670.7167 
   9   1.0000     -24.647391      -670.6896 
  10   1.0000     -24.638479      -670.4471 
  11   1.0000     -24.638299      -670.4422 
  12   1.0000     -24.614036      -669.7820 
  13   1.0000     -24.613647      -669.7714 
  14   1.0000     -18.988463      -516.7024 
  15   1.0000     -18.986653      -516.6531 
  16   1.0000     -10.391620      -282.7704 
  17   1.0000     -10.339821      -281.3608 
  18   1.0000     -10.334433      -281.2142 
  19   1.0000     -10.331178      -281.1257 
  20   1.0000     -10.316432      -280.7244 
  21   1.0000     -10.279115      -279.7090 
  22   1.0000     -10.264736      -279.3177 
  23   1.0000     -10.189636      -277.2741 
  24   1.0000      -1.308341       -35.6018 
  25   1.0000      -1.291953       -35.1558 
  26   1.0000      -1.275661       -34.7125 
  27   1.0000      -1.268544       -34.5188 
  28   1.0000      -1.262841       -34.3637 
  29   1.0000      -1.258964       -34.2581 
  30   1.0000      -1.231281       -33.5049 
  31   1.0000      -1.226262       -33.3683 
  32   1.0000      -1.223192       -33.2847 
  33   1.0000      -1.217403       -33.1272 
  34   1.0000      -1.216456       -33.1015 
  35   1.0000      -1.213174       -33.0121 
  36   1.0000      -1.203288       -32.7431 
  37   1.0000      -1.175320       -31.9821 
  38   1.0000      -0.996881       -27.1265 
  39   1.0000      -0.915644       -24.9159 
  40   1.0000      -0.828634       -22.5483 
  41   1.0000      -0.801912       -21.8211 
  42   1.0000      -0.767503       -20.8848 
  43   1.0000      -0.729785       -19.8584 
  44   1.0000      -0.687345       -18.7036 
  45   1.0000      -0.650928       -17.7127 
  46   1.0000      -0.640840       -17.4381 
  47   1.0000      -0.610674       -16.6173 
  48   1.0000      -0.606395       -16.5009 
  49   1.0000      -0.604676       -16.4541 
  50   1.0000      -0.594291       -16.1715 
  51   1.0000      -0.590831       -16.0773 
  52   1.0000      -0.589440       -16.0395 
  53   1.0000      -0.574699       -15.6384 
  54   1.0000      -0.571830       -15.5603 
  55   1.0000      -0.566210       -15.4074 
  56   1.0000      -0.555098       -15.1050 
  57   1.0000      -0.550622       -14.9832 
  58   1.0000      -0.546047       -14.8587 
  59   1.0000      -0.537275       -14.6200 
  60   1.0000      -0.521425       -14.1887 
  61   1.0000      -0.504653       -13.7323 
  62   1.0000      -0.473763       -12.8917 
  63   1.0000      -0.471682       -12.8351 
  64   1.0000      -0.468585       -12.7509 
  65   1.0000      -0.463924       -12.6240 
  66   1.0000      -0.460395       -12.5280 
  67   1.0000      -0.457448       -12.4478 
  68   1.0000      -0.453880       -12.3507 
  69   1.0000      -0.450529       -12.2595 
  70   1.0000      -0.444454       -12.0942 
  71   1.0000      -0.438981       -11.9453 
  72   1.0000      -0.436128       -11.8676 
  73   1.0000      -0.434076       -11.8118 
  74   1.0000      -0.431012       -11.7284 
  75   1.0000      -0.425693       -11.5837 
  76   1.0000      -0.424502       -11.5513 
  77   1.0000      -0.420582       -11.4446 
  78   1.0000      -0.416070       -11.3219 
  79   1.0000      -0.411751       -11.2043 
  80   1.0000      -0.409755       -11.1500 
  81   1.0000      -0.405333       -11.0297 
  82   1.0000      -0.404512       -11.0073 
  83   1.0000      -0.402506       -10.9527 
  84   1.0000      -0.398237       -10.8366 
  85   1.0000      -0.390674       -10.6308 
  86   1.0000      -0.382565       -10.4101 
  87   1.0000      -0.380200       -10.3458 
  88   1.0000      -0.374306       -10.1854 
  89   1.0000      -0.362919        -9.8755 
  90   1.0000      -0.355172        -9.6647 
  91   1.0000      -0.320775        -8.7287 
  92   1.0000      -0.258140        -7.0243 
  93   1.0000      -0.232166        -6.3175 
  94   1.0000      -0.217645        -5.9224 
  95   1.0000      -0.215607        -5.8670 
  96   0.0000      -0.009367        -0.2549 
  97   0.0000       0.000590         0.0160 
  98   0.0000       0.014504         0.3947 
  99   0.0000       0.041211         1.1214 
 100   0.0000       0.064167         1.7461 
 101   0.0000       0.082385         2.2418 
 102   0.0000       0.093775         2.5517 
 103   0.0000       0.114375         3.1123 
 104   0.0000       0.115286         3.1371 
 105   0.0000       0.120137         3.2691 
 106   0.0000       0.126608         3.4452 

                 SPIN DOWN ORBITALS
  NO   OCC          E(Eh)            E(eV) 
   0   1.0000     -24.666788      -671.2174 
   1   1.0000     -24.653703      -670.8614 
   2   1.0000     -24.653094      -670.8448 
   3   1.0000     -24.652710      -670.8344 
   4   1.0000     -24.652674      -670.8334 
   5   1.0000     -24.651298      -670.7959 
   6   1.0000     -24.649979      -670.7600 
   7   1.0000     -24.648719      -670.7258 
   8   1.0000     -24.648380      -670.7165 
   9   1.0000     -24.646004      -670.6519 
  10   1.0000     -24.638482      -670.4472 
  11   1.0000     -24.638297      -670.4421 
  12   1.0000     -24.614033      -669.7819 
  13   1.0000     -24.613648      -669.7714 
  14   1.0000     -18.988444      -516.7018 
  15   1.0000     -18.986650      -516.6530 
  16   1.0000     -10.392325      -282.7895 
  17   1.0000     -10.340717      -281.3852 
  18   1.0000     -10.333837      -281.1980 
  19   1.0000     -10.331079      -281.1230 
  20   1.0000     -10.316390      -280.7233 
  21   1.0000     -10.279096      -279.7084 
  22   1.0000     -10.248916      -278.8872 
  23   1.0000     -10.189632      -277.2740 
  24   1.0000      -1.306889       -35.5623 
  25   1.0000      -1.291480       -35.1430 
  26   1.0000      -1.274416       -34.6786 
  27   1.0000      -1.267733       -34.4968 
  28   1.0000      -1.259098       -34.2618 
  29   1.0000      -1.255566       -34.1657 
  30   1.0000      -1.231271       -33.5046 
  31   1.0000      -1.225829       -33.3565 
  32   1.0000      -1.222418       -33.2637 
  33   1.0000      -1.215758       -33.0825 
  34   1.0000      -1.215106       -33.0647 
  35   1.0000      -1.212826       -33.0027 
  36   1.0000      -1.203286       -32.7431 
  37   1.0000      -1.175317       -31.9820 
  38   1.0000      -0.996862       -27.1260 
  39   1.0000      -0.915621       -24.9153 
  40   1.0000      -0.817862       -22.2552 
  41   1.0000      -0.795252       -21.6399 
  42   1.0000      -0.763216       -20.7682 
  43   1.0000      -0.728774       -19.8310 
  44   1.0000      -0.684520       -18.6267 
  45   1.0000      -0.646214       -17.5844 
  46   1.0000      -0.640294       -17.4233 
  47   1.0000      -0.609140       -16.5756 
  48   1.0000      -0.602442       -16.3933 
  49   1.0000      -0.602164       -16.3857 
  50   1.0000      -0.593615       -16.1531 
  51   1.0000      -0.588607       -16.0168 
  52   1.0000      -0.586809       -15.9679 
  53   1.0000      -0.573796       -15.6138 
  54   1.0000      -0.571114       -15.5408 
  55   1.0000      -0.564789       -15.3687 
  56   1.0000      -0.554501       -15.0887 
  57   1.0000      -0.549229       -14.9453 
  58   1.0000      -0.545664       -14.8483 
  59   1.0000      -0.536905       -14.6099 
  60   1.0000      -0.521417       -14.1885 
  61   1.0000      -0.475946       -12.9511 
  62   1.0000      -0.472251       -12.8506 
  63   1.0000      -0.470646       -12.8069 
  64   1.0000      -0.466876       -12.7043 
  65   1.0000      -0.462275       -12.5791 
  66   1.0000      -0.459763       -12.5108 
  67   1.0000      -0.455634       -12.3984 
  68   1.0000      -0.451877       -12.2962 
  69   1.0000      -0.449476       -12.2309 
  70   1.0000      -0.443339       -12.0639 
  71   1.0000      -0.438667       -11.9367 
  72   1.0000      -0.435339       -11.8462 
  73   1.0000      -0.431812       -11.7502 
  74   1.0000      -0.429563       -11.6890 
  75   1.0000      -0.425377       -11.5751 
  76   1.0000      -0.422232       -11.4895 
  77   1.0000      -0.419756       -11.4221 
  78   1.0000      -0.415531       -11.3072 
  79   1.0000      -0.411276       -11.1914 
  80   1.0000      -0.409099       -11.1321 
  81   1.0000      -0.404880       -11.0173 
  82   1.0000      -0.403591       -10.9823 
  83   1.0000      -0.402421       -10.9504 
  84   1.0000      -0.397037       -10.8039 
  85   1.0000      -0.389617       -10.6020 
  86   1.0000      -0.382554       -10.4098 
  87   1.0000      -0.379094       -10.3157 
  88   1.0000      -0.374250       -10.1839 
  89   1.0000      -0.362897        -9.8749 
  90   1.0000      -0.353613        -9.6223 
  91   1.0000      -0.319553        -8.6955 
  92   1.0000      -0.232156        -6.3173 
  93   1.0000      -0.217697        -5.9238 
  94   1.0000      -0.215602        -5.8668 
  95   0.0000      -0.131768        -3.5856 
  96   0.0000      -0.005855        -0.1593 
  97   0.0000       0.005086         0.1384 
  98   0.0000       0.019201         0.5225 
  99   0.0000       0.045081         1.2267 
 100   0.0000       0.072142         1.9631 
 101   0.0000       0.085466         2.3257 
 102   0.0000       0.095472         2.5979 
 103   0.0000       0.114737         3.1222 
 104   0.0000       0.122104         3.3226 
 105   0.0000       0.127305         3.4642 
*Only the first 10 virtual orbitals were printed.

                    ********************************
                    * MULLIKEN POPULATION ANALYSIS *
                    ********************************

--------------------------------------------
MULLIKEN ATOMIC CHARGES AND SPIN POPULATIONS
--------------------------------------------
   0 C :    0.167230    0.000182
   1 O :   -0.478204    0.000655
   2 O :   -0.492091    0.000125
   3 C :    0.299488    0.000595
   4 C :    0.281418    0.002014
   5 C :    0.288196    0.005021
   6 C :    0.272501    0.028385
   7 C :    0.341014   -0.015747
   8 C :    0.144661    0.853761
   9 C :    0.414382   -0.018449
  10 F :   -0.195070   -0.000009
  11 F :   -0.201729    0.000085
  12 F :   -0.165934   -0.000022
  13 F :   -0.173737    0.000062
  14 F :   -0.157985   -0.000167
  15 F :   -0.157758    0.000132
  16 F :   -0.156915   -0.000236
  17 F :   -0.157240   -0.000538
  18 F :   -0.156994    0.014708
  19 F :   -0.155035    0.004706
  20 F :   -0.123765    0.086597
  21 F :   -0.150463    0.026626
  22 F :   -0.141144    0.002741
  23 F :   -0.144828    0.008772
Sum of atomic charges         :   -1.0000000
Sum of atomic spin populations:    1.0000000

-----------------------------------------------------
MULLIKEN REDUCED ORBITAL CHARGES AND SPIN POPULATIONS
-----------------------------------------------------
CHARGE
  0 C s       :     3.035127  s :     3.035127
      pz      :     0.852014  p :     2.517261
      px      :     0.870337
      py      :     0.794910
      dz2     :     0.030552  d :     0.256259
      dxz     :     0.022760
      dyz     :     0.068241
      dx2y2   :     0.057388
      dxy     :     0.077317
      f0      :     0.002563  f :     0.024123
      f+1     :     0.001780
      f-1     :     0.002893
      f+2     :     0.005126
      f-2     :     0.002095
      f+3     :     0.005418
      f-3     :     0.004248

  1 O s       :     3.788660  s :     3.788660
      pz      :     1.503947  p :     4.660500
      px      :     1.568570
      py      :     1.587983
      dz2     :     0.005517  d :     0.027281
      dxz     :     0.003775
      dyz     :     0.006394
      dx2y2   :     0.005195
      dxy     :     0.006400
      f0      :     0.000131  f :     0.001764
      f+1     :     0.000137
      f-1     :     0.000354
      f+2     :     0.000259
      f-2     :     0.000340
      f+3     :     0.000256
      f-3     :     0.000287

  2 O s       :     3.789769  s :     3.789769
      pz      :     1.633226  p :     4.673502
      px      :     1.677240
      py      :     1.363035
      dz2     :     0.002859  d :     0.027079
      dxz     :     0.000328
      dyz     :     0.007960
      dx2y2   :     0.008431
      dxy     :     0.007501
      f0      :     0.000206  f :     0.001741
      f+1     :     0.000030
      f-1     :     0.000245
      f+2     :     0.000323
      f-2     :     0.000038
      f+3     :     0.000466
      f-3     :     0.000432

  3 C s       :     3.123024  s :     3.123024
      pz      :     0.693004  p :     2.288058
      px      :     0.961398
      py      :     0.633656
      dz2     :     0.048412  d :     0.262895
      dxz     :     0.048209
      dyz     :     0.068562
      dx2y2   :     0.042701
      dxy     :     0.055011
      f0      :     0.005530  f :     0.026535
      f+1     :     0.004122
      f-1     :     0.004135
      f+2     :     0.004028
      f-2     :     0.001533
      f+3     :     0.004870
      f-3     :     0.002317

  4 C s       :     3.131826  s :     3.131826
      pz      :     0.631086  p :     2.266483
      px      :     0.952332
      py      :     0.683064
      dz2     :     0.054355  d :     0.292261
      dxz     :     0.061725
      dyz     :     0.073184
      dx2y2   :     0.043523
      dxy     :     0.059475
      f0      :     0.003964  f :     0.028013
      f+1     :     0.005250
      f-1     :     0.007468
      f+2     :     0.002519
      f-2     :     0.001857
      f+3     :     0.004329
      f-3     :     0.002626

  5 C s       :     3.134865  s :     3.134865
      pz      :     0.614561  p :     2.250719
      px      :     0.925068
      py      :     0.711090
      dz2     :     0.069687  d :     0.297977
      dxz     :     0.059771
      dyz     :     0.067987
      dx2y2   :     0.038984
      dxy     :     0.061548
      f0      :     0.004099  f :     0.028244
      f+1     :     0.004408
      f-1     :     0.007724
      f+2     :     0.002741
      f-2     :     0.003478
      f+3     :     0.003369
      f-3     :     0.002425

  6 C s       :     3.136644  s :     3.136644
      pz      :     0.584099  p :     2.260806
      px      :     0.946414
      py      :     0.730293
      dz2     :     0.080921  d :     0.301669
      dxz     :     0.064664
      dyz     :     0.056583
      dx2y2   :     0.038437
      dxy     :     0.061064
      f0      :     0.005981  f :     0.028380
      f+1     :     0.004160
      f-1     :     0.004776
      f+2     :     0.004002
      f-2     :     0.005112
      f+3     :     0.002348
      f-3     :     0.002000

  7 C s       :     3.052157  s :     3.052157
      pz      :     0.593693  p :     2.268052
      px      :     0.936545
      py      :     0.737815
      dz2     :     0.081977  d :     0.310807
      dxz     :     0.065778
      dyz     :     0.055542
      dx2y2   :     0.048026
      dxy     :     0.059485
      f0      :     0.006102  f :     0.027969
      f+1     :     0.003651
      f-1     :     0.004456
      f+2     :     0.004288
      f-2     :     0.004968
      f+3     :     0.002585
      f-3     :     0.001919

  8 C s       :     3.207601  s :     3.207601
      pz      :     0.638889  p :     2.475424
      px      :     0.877655
      py      :     0.958880
      dz2     :     0.036284  d :     0.154340
      dxz     :     0.053061
      dyz     :     0.033092
      dx2y2   :     0.014301
      dxy     :     0.017602
      f0      :     0.004187  f :     0.017973
      f+1     :     0.003781
      f-1     :     0.003398
      f+2     :     0.002044
      f-2     :     0.001988
      f+3     :     0.001247
      f-3     :     0.001329

  9 C s       :     3.001725  s :     3.001725
      pz      :     0.758956  p :     2.182798
      px      :     0.764688
      py      :     0.659154
      dz2     :     0.063716  d :     0.361336
      dxz     :     0.066356
      dyz     :     0.081898
      dx2y2   :     0.081196
      dxy     :     0.068171
      f0      :     0.006610  f :     0.039758
      f+1     :     0.004237
      f-1     :     0.005533
      f+2     :     0.004219
      f-2     :     0.006615
      f+3     :     0.004675
      f-3     :     0.007868

 10 F s       :     3.911968  s :     3.911968
      pz      :     1.897604  p :     5.267771
      px      :     1.908898
      py      :     1.461269
      dz2     :     0.002054  d :     0.014675
      dxz     :     0.000206
      dyz     :     0.002921
      dx2y2   :     0.005943
      dxy     :     0.003551
      f0      :     0.000052  f :     0.000656
      f+1     :     0.000012
      f-1     :     0.000135
      f+2     :     0.000089
      f-2     :     0.000004
      f+3     :     0.000144
      f-3     :     0.000220

 11 F s       :     3.913154  s :     3.913154
      pz      :     1.496845  p :     5.273543
      px      :     1.906084
      py      :     1.870613
      dz2     :     0.006512  d :     0.014384
      dxz     :     0.003468
      dyz     :     0.003500
      dx2y2   :     0.000466
      dxy     :     0.000438
      f0      :     0.000243  f :     0.000648
      f+1     :     0.000140
      f-1     :     0.000186
      f+2     :     0.000039
      f-2     :     0.000036
      f+3     :     0.000002
      f-3     :     0.000003

 12 F s       :     3.915142  s :     3.915142
      pz      :     1.852596  p :     5.234516
      px      :     1.898436
      py      :     1.483484
      dz2     :     0.002029  d :     0.015578
      dxz     :     0.000422
      dyz     :     0.004030
      dx2y2   :     0.005423
      dxy     :     0.003675
      f0      :     0.000071  f :     0.000697
      f+1     :     0.000008
      f-1     :     0.000117
      f+2     :     0.000144
      f-2     :     0.000037
      f+3     :     0.000141
      f-3     :     0.000179

 13 F s       :     3.917681  s :     3.917681
      pz      :     1.442043  p :     5.240031
      px      :     1.907843
      py      :     1.890145
      dz2     :     0.008241  d :     0.015340
      dxz     :     0.003670
      dyz     :     0.003084
      dx2y2   :     0.000209
      dxy     :     0.000137
      f0      :     0.000366  f :     0.000685
      f+1     :     0.000160
      f-1     :     0.000147
      f+2     :     0.000006
      f-2     :     0.000004
      f+3     :     0.000001
      f-3     :     0.000001

 14 F s       :     3.917139  s :     3.917139
      pz      :     1.774058  p :     5.224344
      px      :     1.901723
      py      :     1.548563
      dz2     :     0.002110  d :     0.015799
      dxz     :     0.000989
      dyz     :     0.005586
      dx2y2   :     0.004129
      dxy     :     0.002985
      f0      :     0.000079  f :     0.000703
      f+1     :     0.000004
      f-1     :     0.000138
      f+2     :     0.000202
      f-2     :     0.000078
      f+3     :     0.000091
      f-3     :     0.000110

 15 F s       :     3.916935  s :     3.916935
      pz      :     1.469365  p :     5.224326
      px      :     1.892614
      py      :     1.862347
      dz2     :     0.007384  d :     0.015793
      dxz     :     0.003796
      dyz     :     0.003749
      dx2y2   :     0.000391
      dxy     :     0.000473
      f0      :     0.000296  f :     0.000704
      f+1     :     0.000159
      f-1     :     0.000182
      f+2     :     0.000027
      f-2     :     0.000037
      f+3     :     0.000002
      f-3     :     0.000002

 16 F s       :     3.918175  s :     3.918175
      pz      :     1.645263  p :     5.222211
      px      :     1.900293
      py      :     1.676655
      dz2     :     0.003302  d :     0.015824
      dxz     :     0.002026
      dyz     :     0.006310
      dx2y2   :     0.002219
      dxy     :     0.001967
      f0      :     0.000089  f :     0.000704
      f+1     :     0.000030
      f-1     :     0.000235
      f+2     :     0.000170
      f-2     :     0.000107
      f+3     :     0.000037
      f-3     :     0.000037

 17 F s       :     3.919499  s :     3.919499
      pz      :     1.546316  p :     5.221187
      px      :     1.900848
      py      :     1.774022
      dz2     :     0.005215  d :     0.015852
      dxz     :     0.002838
      dyz     :     0.005546
      dx2y2   :     0.001099
      dxy     :     0.001154
      f0      :     0.000161  f :     0.000702
      f+1     :     0.000076
      f-1     :     0.000266
      f+2     :     0.000094
      f-2     :     0.000083
      f+3     :     0.000012
      f-3     :     0.000010

 18 F s       :     3.918525  s :     3.918525
      pz      :     1.624072  p :     5.222504
      px      :     1.896390
      py      :     1.702042
      dz2     :     0.003514  d :     0.015285
      dxz     :     0.002233
      dyz     :     0.005999
      dx2y2   :     0.001814
      dxy     :     0.001724
      f0      :     0.000092  f :     0.000679
      f+1     :     0.000044
      f-1     :     0.000234
      f+2     :     0.000143
      f-2     :     0.000108
      f+3     :     0.000030
      f-3     :     0.000029

 19 F s       :     3.920308  s :     3.920308
      pz      :     1.566144  p :     5.218409
      px      :     1.901662
      py      :     1.750603
      dz2     :     0.004623  d :     0.015626
      dxz     :     0.002544
      dyz     :     0.005790
      dx2y2   :     0.001310
      dxy     :     0.001359
      f0      :     0.000131  f :     0.000693
      f+1     :     0.000062
      f-1     :     0.000264
      f+2     :     0.000113
      f-2     :     0.000091
      f+3     :     0.000017
      f-3     :     0.000015

 20 F s       :     3.917033  s :     3.917033
      pz      :     1.495791  p :     5.188350
      px      :     1.868697
      py      :     1.823862
      dz2     :     0.007001  d :     0.017612
      dxz     :     0.004374
      dyz     :     0.005029
      dx2y2   :     0.000607
      dxy     :     0.000600
      f0      :     0.000259  f :     0.000770
      f+1     :     0.000190
      f-1     :     0.000207
      f+2     :     0.000053
      f-2     :     0.000054
      f+3     :     0.000004
      f-3     :     0.000003

 21 F s       :     3.911762  s :     3.911762
      pz      :     1.877379  p :     5.222683
      px      :     1.765064
      py      :     1.580240
      dz2     :     0.002135  d :     0.015299
      dxz     :     0.001296
      dyz     :     0.002531
      dx2y2   :     0.003735
      dxy     :     0.005602
      f0      :     0.000065  f :     0.000719
      f+1     :     0.000044
      f-1     :     0.000104
      f+2     :     0.000035
      f-2     :     0.000100
      f+3     :     0.000235
      f-3     :     0.000136

 22 F s       :     3.911189  s :     3.911189
      pz      :     1.853206  p :     5.213253
      px      :     1.693654
      py      :     1.666392
      dz2     :     0.002130  d :     0.015945
      dxz     :     0.002349
      dyz     :     0.002574
      dx2y2   :     0.003082
      dxy     :     0.005810
      f0      :     0.000081  f :     0.000757
      f+1     :     0.000066
      f-1     :     0.000068
      f+2     :     0.000038
      f-2     :     0.000168
      f+3     :     0.000175
      f-3     :     0.000160

 23 F s       :     3.912980  s :     3.912980
      pz      :     1.534657  p :     5.215379
      px      :     1.828546
      py      :     1.852176
      dz2     :     0.005588  d :     0.015728
      dxz     :     0.004753
      dyz     :     0.003529
      dx2y2   :     0.000792
      dxy     :     0.001065
      f0      :     0.000167  f :     0.000741
      f+1     :     0.000226
      f-1     :     0.000151
      f+2     :     0.000073
      f-2     :     0.000103
      f+3     :     0.000011
      f-3     :     0.000011


SPIN
  0 C s       :     0.000186  s :     0.000186
      pz      :     0.000012  p :    -0.000008
      px      :     0.000023
      py      :    -0.000043
      dz2     :     0.000005  d :     0.000002
      dxz     :     0.000003
      dyz     :     0.000006
      dx2y2   :    -0.000015
      dxy     :     0.000003
      f0      :    -0.000000  f :     0.000003
      f+1     :     0.000000
      f-1     :     0.000001
      f+2     :     0.000000
      f-2     :     0.000001
      f+3     :     0.000001
      f-3     :     0.000000

  1 O s       :     0.000011  s :     0.000011
      pz      :     0.000317  p :     0.000646
      px      :     0.000189
      py      :     0.000140
      dz2     :    -0.000000  d :    -0.000001
      dxz     :    -0.000001
      dyz     :     0.000000
      dx2y2   :    -0.000000
      dxy     :    -0.000000
      f0      :    -0.000000  f :    -0.000000
      f+1     :     0.000000
      f-1     :    -0.000000
      f+2     :    -0.000000
      f-2     :    -0.000000
      f+3     :    -0.000000
      f-3     :    -0.000000

  2 O s       :    -0.000010  s :    -0.000010
      pz      :     0.000102  p :     0.000135
      px      :    -0.000046
      py      :     0.000079
      dz2     :     0.000000  d :    -0.000001
      dxz     :    -0.000000
      dyz     :    -0.000000
      dx2y2   :    -0.000001
      dxy     :     0.000000
      f0      :    -0.000000  f :     0.000000
      f+1     :    -0.000000
      f-1     :     0.000000
      f+2     :    -0.000000
      f-2     :    -0.000000
      f+3     :     0.000000
      f-3     :     0.000000

  3 C s       :    -0.000115  s :    -0.000115
      pz      :    -0.000061  p :     0.000654
      px      :     0.000744
      py      :    -0.000029
      dz2     :    -0.000004  d :     0.000054
      dxz     :     0.000003
      dyz     :    -0.000002
      dx2y2   :     0.000040
      dxy     :     0.000016
      f0      :    -0.000000  f :     0.000002
      f+1     :    -0.000000
      f-1     :     0.000000
      f+2     :     0.000001
      f-2     :     0.000001
      f+3     :     0.000001
      f-3     :     0.000001

  4 C s       :    -0.000024  s :    -0.000024
      pz      :     0.000081  p :     0.001801
      px      :     0.000986
      py      :     0.000734
      dz2     :     0.000022  d :     0.000227
      dxz     :    -0.000001
      dyz     :     0.000006
      dx2y2   :     0.000149
      dxy     :     0.000051
      f0      :    -0.000001  f :     0.000010
      f+1     :     0.000000
      f-1     :    -0.000000
      f+2     :     0.000002
      f-2     :     0.000003
      f+3     :     0.000006
      f-3     :    -0.000000

  5 C s       :    -0.001361  s :    -0.001361
      pz      :     0.000075  p :     0.005879
      px      :     0.002315
      py      :     0.003488
      dz2     :     0.000058  d :     0.000484
      dxz     :    -0.000006
      dyz     :     0.000001
      dx2y2   :     0.000394
      dxy     :     0.000038
      f0      :    -0.000003  f :     0.000019
      f+1     :     0.000001
      f-1     :     0.000001
      f+2     :    -0.000000
      f-2     :    -0.000002
      f+3     :     0.000021
      f-3     :     0.000002

  6 C s       :    -0.004102  s :    -0.004102
      pz      :     0.001250  p :     0.028630
      px      :     0.016059
      py      :     0.011321
      dz2     :     0.000577  d :     0.003853
      dxz     :     0.000162
      dyz     :     0.000035
      dx2y2   :     0.002389
      dxy     :     0.000691
      f0      :    -0.000009  f :     0.000004
      f+1     :     0.000010
      f-1     :    -0.000009
      f+2     :    -0.000004
      f-2     :    -0.000002
      f+3     :     0.000020
      f-3     :    -0.000002

  7 C s       :    -0.000733  s :    -0.000733
      pz      :    -0.003561  p :    -0.035834
      px      :    -0.022779
      py      :    -0.009494
      dz2     :     0.000756  d :     0.019658
      dxz     :     0.000750
      dyz     :    -0.000047
      dx2y2   :     0.014140
      dxy     :     0.004061
      f0      :     0.000017  f :     0.001161
      f+1     :     0.000021
      f-1     :     0.000155
      f+2     :     0.000047
      f-2     :     0.000007
      f+3     :     0.000957
      f-3     :    -0.000042

  8 C s       :     0.059328  s :     0.059328
      pz      :     0.041652  p :     0.792916
      px      :     0.150794
      py      :     0.600470
      dz2     :     0.000577  d :     0.003725
      dxz     :     0.001144
      dyz     :     0.002930
      dx2y2   :    -0.000269
      dxy     :    -0.000657
      f0      :    -0.000279  f :    -0.002209
      f+1     :    -0.000256
      f-1     :    -0.000387
      f+2     :    -0.000329
      f-2     :    -0.000130
      f+3     :    -0.000197
      f-3     :    -0.000632

  9 C s       :    -0.015532  s :    -0.015532
      pz      :    -0.011980  p :    -0.017588
      px      :    -0.014898
      py      :     0.009290
      dz2     :     0.001486  d :     0.013078
      dxz     :    -0.000627
      dyz     :     0.005037
      dx2y2   :    -0.000047
      dxy     :     0.007228
      f0      :     0.000052  f :     0.001593
      f+1     :     0.000029
      f-1     :     0.000158
      f+2     :     0.000131
      f-2     :     0.000803
      f+3     :     0.000171
      f-3     :     0.000249

 10 F s       :     0.000010  s :     0.000010
      pz      :    -0.000004  p :    -0.000021
      px      :    -0.000008
      py      :    -0.000009
      dz2     :     0.000000  d :     0.000002
      dxz     :    -0.000000
      dyz     :    -0.000000
      dx2y2   :     0.000000
      dxy     :     0.000001
      f0      :     0.000000  f :     0.000000
      f+1     :     0.000000
      f-1     :     0.000000
      f+2     :    -0.000000
      f-2     :    -0.000000
      f+3     :     0.000000
      f-3     :     0.000000

 11 F s       :     0.000005  s :     0.000005
      pz      :    -0.000011  p :     0.000079
      px      :     0.000085
      py      :     0.000005
      dz2     :     0.000000  d :     0.000001
      dxz     :     0.000002
      dyz     :    -0.000000
      dx2y2   :    -0.000000
      dxy     :    -0.000000
      f0      :    -0.000000  f :     0.000000
      f+1     :     0.000000
      f-1     :    -0.000000
      f+2     :    -0.000000
      f-2     :     0.000000
      f+3     :    -0.000000
      f-3     :    -0.000000

 12 F s       :     0.000035  s :     0.000035
      pz      :     0.000003  p :    -0.000061
      px      :    -0.000020
      py      :    -0.000044
      dz2     :     0.000000  d :     0.000003
      dxz     :     0.000000
      dyz     :     0.000000
      dx2y2   :     0.000002
      dxy     :     0.000000
      f0      :    -0.000000  f :     0.000000
      f+1     :    -0.000000
      f-1     :     0.000000
      f+2     :     0.000000
      f-2     :     0.000000
      f+3     :     0.000000
      f-3     :     0.000000

 13 F s       :     0.000004  s :     0.000004
      pz      :    -0.000036  p :     0.000055
      px      :     0.000025
      py      :     0.000065
      dz2     :     0.000000  d :     0.000003
      dxz     :     0.000002
      dyz     :     0.000000
      dx2y2   :     0.000000
      dxy     :    -0.000000
      f0      :    -0.000000  f :     0.000000
      f+1     :     0.000000
      f-1     :     0.000000
      f+2     :     0.000000
      f-2     :    -0.000000
      f+3     :     0.000000
      f-3     :    -0.000000

 14 F s       :    -0.000023  s :    -0.000023
      pz      :     0.000006  p :    -0.000155
      px      :    -0.000034
      py      :    -0.000127
      dz2     :     0.000001  d :     0.000010
      dxz     :     0.000001
      dyz     :     0.000000
      dx2y2   :     0.000006
      dxy     :     0.000002
      f0      :    -0.000000  f :     0.000000
      f+1     :    -0.000000
      f-1     :    -0.000000
      f+2     :     0.000000
      f-2     :     0.000000
      f+3     :     0.000000
      f-3     :     0.000000

 15 F s       :     0.000015  s :     0.000015
      pz      :    -0.000073  p :     0.000106
      px      :    -0.000022
      py      :     0.000201
      dz2     :     0.000000  d :     0.000011
      dxz     :     0.000006
      dyz     :     0.000000
      dx2y2   :     0.000001
      dxy     :     0.000004
      f0      :    -0.000000  f :     0.000000
      f+1     :     0.000000
      f-1     :    -0.000000
[...]
  7:     20.43   0.000415    2.10  0.006332  (-0.030434  0.056922 -0.046540)
  8:     24.86   0.000413    2.09  0.005188  (-0.007653 -0.041997 -0.058015)
  9:     38.92   0.000110    0.56  0.000883  (-0.013642 -0.020314 -0.016844)
 10:     40.56   0.000129    0.65  0.000991  (-0.013252 -0.017922 -0.022228)
 11:     53.24   0.000295    1.49  0.001729  ( 0.009875 -0.039934 -0.006035)
 12:     60.23   0.000026    0.13  0.000133  ( 0.002810  0.007066  0.008694)
 13:     70.02   0.000443    2.24  0.001974  ( 0.025138 -0.025281  0.026509)
 14:    100.17   0.000290    1.47  0.000904  ( 0.020948 -0.010947  0.018594)
 15:    124.01   0.001123    5.68  0.002826  (-0.042328 -0.006196 -0.031564)
 16:    145.33   0.000209    1.06  0.000450  (-0.017775  0.009927  0.005929)
 17:    161.98   0.001236    6.25  0.002382  (-0.028458 -0.002123  0.039590)
 18:    186.06   0.000452    2.28  0.000758  ( 0.026632 -0.000269 -0.006990)
 19:    187.49   0.001792    9.05  0.002982  ( 0.016174  0.021303  0.047607)
 20:    202.45   0.000117    0.59  0.000180  ( 0.006312  0.008803 -0.007926)
 21:    218.63   0.000236    1.19  0.000337  ( 0.014137 -0.011042 -0.003873)
 22:    238.45   0.000034    0.17  0.000044  ( 0.002569 -0.003332 -0.005160)
 23:    241.25   0.000068    0.35  0.000088  ( 0.005601 -0.002549 -0.007107)
 24:    251.99   0.000280    1.41  0.000347  (-0.009480  0.000894 -0.015996)
 25:    264.33   0.000368    1.86  0.000435  (-0.020138  0.001970 -0.005032)
 26:    296.37   0.000387    1.96  0.000408  ( 0.018205 -0.007141 -0.005026)
 27:    305.81   0.000172    0.87  0.000176  (-0.010077  0.008557  0.000923)
 28:    316.21   0.000037    0.19  0.000036  ( 0.002040 -0.000142 -0.005674)
 29:    340.03   0.000395    2.00  0.000363  ( 0.016380  0.000177  0.009721)
 30:    343.75   0.000265    1.34  0.000240  ( 0.009109  0.002481  0.012300)
 31:    354.32   0.000166    0.84  0.000146  ( 0.011961 -0.001571 -0.000675)
 32:    360.00   0.000601    3.04  0.000521  ( 0.022766  0.000295  0.001623)
 33:    364.01   0.000025    0.12  0.000021  ( 0.004488  0.000938 -0.000088)
 34:    396.37   0.000978    4.94  0.000770  ( 0.027654  0.001159  0.001925)
 35:    424.34   0.001400    7.07  0.001029  ( 0.031796 -0.004235  0.000549)
 36:    458.25   0.000909    4.59  0.000619  (-0.013842 -0.011901 -0.016897)
 37:    484.45   0.006183   31.25  0.003983  (-0.061041  0.016006  0.000847)
 38:    525.13   0.003474   17.55  0.002064  ( 0.043212 -0.003568  0.013574)
 39:    537.51   0.007360   37.19  0.004273  (-0.065300 -0.001455  0.002570)
 40:    542.54   0.006204   31.35  0.003568  ( 0.044171 -0.033768  0.021840)
 41:    553.81   0.005874   29.68  0.003310  ( 0.044016  0.033200 -0.016432)
 42:    568.71   0.001088    5.50  0.000597  ( 0.014693 -0.017152 -0.009319)
 43:    592.31   0.000705    3.56  0.000372  (-0.016230 -0.010251  0.001771)
 44:    619.41   0.001617    8.17  0.000815  ( 0.017086 -0.013154  0.018704)
 45:    642.75   0.049403  249.66  0.023986  ( 0.154077  0.015325 -0.003328)
 46:    661.51   0.000249    1.26  0.000118  ( 0.000409 -0.010347  0.003219)
 47:    704.97   0.001801    9.10  0.000797  ( 0.000357 -0.011713  0.025691)
 48:    706.50   0.002535   12.81  0.001120  (-0.027265  0.010489 -0.016326)
 49:    759.15   0.001673    8.45  0.000688  (-0.023714  0.003597  0.010598)
 50:    781.74   0.020724  104.73  0.008273  (-0.059285 -0.029918  0.062152)
 51:    864.56   0.004351   21.99  0.001571  (-0.039246  0.003342 -0.004366)
 52:    983.52   0.019360   97.84  0.006143  ( 0.053694 -0.027731  0.049907)
 53:   1046.90   0.017505   88.46  0.005218  ( 0.048120  0.051365  0.016245)
 54:   1064.26   0.076330  385.74  0.022381  (-0.046506 -0.140961  0.018668)
 55:   1073.03   0.054675  276.31  0.015901  ( 0.015450  0.099422  0.076010)
 56:   1097.52   0.047902  242.08  0.013620  ( 0.020776 -0.071278  0.090045)
 57:   1106.59   0.025800  130.39  0.007276  ( 0.023666 -0.081198  0.011079)
 58:   1109.28   0.067896  343.12  0.019100  (-0.009713 -0.126557  0.054677)
 59:   1122.47   0.021465  108.48  0.005968  ( 0.006346  0.074775  0.018332)
 60:   1131.30   0.018398   92.98  0.005075  (-0.008261  0.002221  0.070724)
 61:   1138.55   0.140424  709.64  0.038489  ( 0.037567  0.045322  0.187145)
 62:   1146.20   0.002625   13.27  0.000715  (-0.008409 -0.025333 -0.001538)
 63:   1147.16   0.134354  678.97  0.036549  ( 0.063530 -0.071435 -0.165559)
 64:   1185.38   0.016773   84.76  0.004416  ( 0.002378 -0.001415  0.066393)
 65:   1197.29   0.000969    4.90  0.000253  (-0.008832 -0.012075 -0.005361)
 66:   1252.31   0.003092   15.63  0.000771  ( 0.014055 -0.018209 -0.015539)
 67:   1274.31   0.007307   36.92  0.001789  ( 0.035627  0.021978 -0.006079)
 68:   1321.47   0.037216  188.07  0.008789  ( 0.062366 -0.053734  0.044852)
 69:   1353.90   0.060493  305.71  0.013943  ( 0.107873  0.023015 -0.042154)
 70:   1399.87   0.015204   76.84  0.003389  ( 0.052050 -0.013965 -0.022026)
 71:   1724.32   0.156364  790.20  0.028298  ( 0.037065 -0.154199 -0.056100)

* The epsilon (eps) is given for a Dirac delta lineshape.
** The dipole moment derivative (T) already includes vibrational overlap.

The first frequency considered to be a vibration is 6
The total number of vibrations considered is 66


--------------------------
THERMOCHEMISTRY AT 298.15K
--------------------------

Temperature         ...   298.15 K
Pressure            ...     1.00 atm
Total Mass          ...   394.06 AMU
Quasi RRHO          ...     True
Cut-Off Frequency   ...     1.00 cm^-1

Throughout the following assumptions are being made:
  (1) The electronic state is orbitally nondegenerate
      but the spin degeneracy is treated
  (2) There are no thermally accessible electronically excited states
  (3) Hindered rotations indicated by low frequency modes are not
      treated as such but are treated as vibrations and this may
      cause some error
  (4) All equations used are the standard statistical mechanics
      equations for an ideal gas
  (5) All vibrations are strictly harmonic

freq.      18.91  E(vib)   ...       0.57 
freq.      20.43  E(vib)   ...       0.56 
freq.      24.86  E(vib)   ...       0.56 
freq.      38.92  E(vib)   ...       0.54 
freq.      40.56  E(vib)   ...       0.54 
freq.      53.24  E(vib)   ...       0.52 
freq.      60.23  E(vib)   ...       0.51 
freq.      70.02  E(vib)   ...       0.50 
freq.     100.17  E(vib)   ...       0.46 
freq.     124.01  E(vib)   ...       0.43 
freq.     145.33  E(vib)   ...       0.41 
freq.     161.98  E(vib)   ...       0.39 
freq.     186.06  E(vib)   ...       0.37 
freq.     187.49  E(vib)   ...       0.36 
freq.     202.45  E(vib)   ...       0.35 
freq.     218.63  E(vib)   ...       0.33 
freq.     238.45  E(vib)   ...       0.32 
freq.     241.25  E(vib)   ...       0.31 
freq.     251.99  E(vib)   ...       0.30 
freq.     264.33  E(vib)   ...       0.29 
freq.     296.37  E(vib)   ...       0.27 
freq.     305.81  E(vib)   ...       0.26 
freq.     316.21  E(vib)   ...       0.25 
freq.     340.03  E(vib)   ...       0.23 
freq.     343.75  E(vib)   ...       0.23 
freq.     354.32  E(vib)   ...       0.22 
freq.     360.00  E(vib)   ...       0.22 
freq.     364.01  E(vib)   ...       0.22 
freq.     396.37  E(vib)   ...       0.20 
freq.     424.34  E(vib)   ...       0.18 
freq.     458.25  E(vib)   ...       0.16 
freq.     484.45  E(vib)   ...       0.15 
freq.     525.13  E(vib)   ...       0.13 
freq.     537.51  E(vib)   ...       0.12 
freq.     542.54  E(vib)   ...       0.12 
freq.     553.81  E(vib)   ...       0.12 
freq.     568.71  E(vib)   ...       0.11 
freq.     592.31  E(vib)   ...       0.10 
freq.     619.41  E(vib)   ...       0.09 
freq.     642.75  E(vib)   ...       0.09 
freq.     661.51  E(vib)   ...       0.08 
freq.     704.97  E(vib)   ...       0.07 
freq.     706.50  E(vib)   ...       0.07 
freq.     759.15  E(vib)   ...       0.06 
freq.     781.74  E(vib)   ...       0.05 
freq.     864.56  E(vib)   ...       0.04 
freq.     983.52  E(vib)   ...       0.02 
freq.    1046.90  E(vib)   ...       0.02 
freq.    1064.26  E(vib)   ...       0.02 
freq.    1073.03  E(vib)   ...       0.02 
freq.    1097.52  E(vib)   ...       0.02 
freq.    1106.59  E(vib)   ...       0.02 
freq.    1109.28  E(vib)   ...       0.02 
freq.    1122.47  E(vib)   ...       0.01 
freq.    1131.30  E(vib)   ...       0.01 
freq.    1138.55  E(vib)   ...       0.01 
freq.    1146.20  E(vib)   ...       0.01 
freq.    1147.16  E(vib)   ...       0.01 
freq.    1185.38  E(vib)   ...       0.01 
freq.    1197.29  E(vib)   ...       0.01 
freq.    1252.31  E(vib)   ...       0.01 
freq.    1274.31  E(vib)   ...       0.01 
freq.    1321.47  E(vib)   ...       0.01 
freq.    1353.90  E(vib)   ...       0.01 
freq.    1399.87  E(vib)   ...       0.00 
freq.    1724.32  E(vib)   ...       0.00 

------------
INNER ENERGY
------------

The inner energy is: U= E(el) + E(ZPE) + E(vib) + E(rot) + E(trans)
    E(el)   - is the total energy from the electronic structure calculation
              = E(kin-el) + E(nuc-el) + E(el-el) + E(nuc-nuc)
    E(ZPE)  - the the zero temperature vibrational energy from the frequency calculation
    E(vib)  - the the finite temperature correction to E(ZPE) due to population
              of excited vibrational states
    E(rot)  - is the rotational thermal energy
    E(trans)- is the translational thermal energy

Summary of contributions to the inner energy U:
Electronic energy                ...  -1853.95319908 Eh
Zero point energy                ...      0.09119388 Eh      57.22 kcal/mol
Thermal vibrational correction   ...      0.02026351 Eh      12.72 kcal/mol
Thermal rotational correction    ...      0.00141627 Eh       0.89 kcal/mol
Thermal translational correction ...      0.00141627 Eh       0.89 kcal/mol
-----------------------------------------------------------------------
Total thermal energy                  -1853.83890915 Eh


Summary of corrections to the electronic energy:
(perhaps to be used in another calculation)
Total thermal correction                  0.02309605 Eh      14.49 kcal/mol
Non-thermal (ZPE) correction              0.09119388 Eh      57.22 kcal/mol
-----------------------------------------------------------------------
Total correction                          0.11428993 Eh      71.72 kcal/mol


--------
ENTHALPY
--------

The enthalpy is H = U + kB*T
                kB is Boltzmann's constant
Total thermal energy              ...  -1853.83890915 Eh 
Thermal Enthalpy correction       ...      0.00094421 Eh       0.59 kcal/mol
-----------------------------------------------------------------------
Total Enthalpy                    ...  -1853.83796494 Eh


Note: Only C1 symmetry has been detected, increase convergence thresholds 
      if your molecule has a higher symmetry. Symmetry factor of 1.0 is   
      used for the rotational entropy correction. 
 

Note: Rotational entropy computed according to Herzberg 
Infrared and Raman Spectra, Chapter V,1, Van Nostrand Reinhold, 1945 
Point Group:  C1, Symmetry Number:   1  
Rotational constants in cm-1:     0.020824     0.004047     0.003976 

Vibrational entropy computed according to the QRRHO of S. Grimme
Chem.Eur.J. 2012 18 9955 using a reference frequency of 100.0 cm-1


-------
ENTROPY
-------

The entropy contributions are T*S = T*(S(el)+S(vib)+S(rot)+S(trans))
     S(el)   - electronic entropy
     S(vib)  - vibrational entropy
     S(rot)  - rotational entropy
     S(trans)- translational entropy
The entropies will be listed as multiplied by the temperature to get
units of energy

Electronic entropy                ...      0.00065446 Eh      0.41 kcal/mol
Vibrational entropy               ...      0.03706515 Eh     23.26 kcal/mol
Rotational entropy                ...      0.01654925 Eh     10.38 kcal/mol
Translational entropy             ...      0.02081341 Eh     13.06 kcal/mol
-----------------------------------------------------------------------
Final entropy term                ...      0.07508227 Eh     47.11 kcal/mol

In case the symmetry of your molecule has not been determined correctly
or in case you have a reason to use a different symmetry number we print 
out the resulting rotational entropy values for sn=1,12:

 non-linear molecules -----------------------------------
|  sn= 1 | S(rot)=       0.01654925 Eh     10.38 kcal/mol|
|  sn= 2 | S(rot)=       0.01589479 Eh      9.97 kcal/mol|
|  sn= 3 | S(rot)=       0.01551196 Eh      9.73 kcal/mol|
|  sn= 4 | S(rot)=       0.01524034 Eh      9.56 kcal/mol|
|  sn= 5 | S(rot)=       0.01502965 Eh      9.43 kcal/mol|
|  sn= 6 | S(rot)=       0.01485751 Eh      9.32 kcal/mol|
|  sn= 7 | S(rot)=       0.01471196 Eh      9.23 kcal/mol|
|  sn= 8 | S(rot)=       0.01458588 Eh      9.15 kcal/mol|
|  sn= 9 | S(rot)=       0.01447467 Eh      9.08 kcal/mol|
|  sn=10 | S(rot)=       0.01437519 Eh      9.02 kcal/mol|
|  sn=11 | S(rot)=       0.01428520 Eh      8.96 kcal/mol|
|  sn=12 | S(rot)=       0.01420305 Eh      8.91 kcal/mol|
 linear molecules ---------------------------------------
|  Dinfh | S(rot)=       0.01054484 Eh      6.62 kcal/mol|
|  Cinfv | S(rot)=       0.01119930 Eh      7.03 kcal/mol|
 --------------------------------------------------------


-------------------
GIBBS FREE ENERGY
-------------------

The Gibbs free energy is G = H - T*S

Total enthalpy                    ...  -1853.83796494 Eh 
Total entropy correction          ...     -0.07508227 Eh    -47.11 kcal/mol
-----------------------------------------------------------------------
Final Gibbs free energy         ...  -1853.91304722 Eh

For completeness - the Gibbs free energy minus the electronic energy
G-E(el)                           ...      0.04015186 Eh     25.20 kcal/mol


Maximum memory used throughout the entire PROP-calculation: 523.7 MB

--------------------------------
SUGGESTED CITATIONS FOR THIS RUN
--------------------------------

Below you find a list of papers that are relevant to this ORCA run
We neither can nor want to force you to cite these papers, but we appreciate if you do
You receive ORCA, which is the product of decades of hard work by many enthusiastic individuals, for free
The only thing we kindly ask in return is that you cite our papers,
We deeply appreciate it, if you show your appreciation for ORCA by not just citing the generic ORCA reference.

Please note that relegating all ORCA citations to the supporting information does *not* help us.
SI sections are not indexed - citations you put there will not count into any citation statistics
But we need these citations in order to attract the funding resources that allow us to do what we are doing

Therefore, if you are a happy ORCA user, please consider citing a few of the papers listed below in the main body of your paper

In addition to the list printed below, the program has created the file rf_mecn_freq_TP_C7_D_B.bibtex that contains the list in bibtex format
You can import this file easily into all common literature databanks and citation aid programs


List of essential papers. We consider these as the minimum necessary citations

  1. Neese,F.
     Software update: the ORCA program system, version 5.0
     WIRES Comput. Molec. Sci., 2022 12(1)e1606
     doi.org/10.1002/wcms.1606

List of papers to cite with high priority. The work reported in these papers was absolutely
necessary for this run to complete.
Our perspective: the developers of density functionals and basis sets usually get cited in chemistry papers
Good! But without the algorithms to do something with them, the functionals or basis sets would not do anything.
Hence, in our opinion, the algorithm design and method developments papers are equally worthy of getting cited

  1. Neese,F.
     An improvement of the resolution of the identity approximation for the formation of the Coulomb matrix
     J. Comp. Chem., 2003 24(14)1740-1747
     doi.org/10.1002/jcc.10318
  2. Neese,F.; Wennmohs,F.; Hansen,A.; Becker,U.
     Efficient, approximate and parallel Hartree-Fock and hybrid DFT calculations. A 'chain-of-spheres' algorithm for the Hartree-Fock exchange
     Chem. Phys., 2009 356(1-3)98-109
     doi.org/10.1016/j.chemphys.2008.10.036
  3. Bykov,D.; Petrenko,T.; Izsak,R.; Kossmann,S.; Becker,U.; Valeev,E.; Neese,F.
     Efficient implementation of the analytic second derivatives of Hartree-Fock and hybrid DFT energies: a detailed analysis of different approximations
     Molec. Phys., 2015 113 1961-1977
     doi.org/10.1080/00268976.2015.1025114
  4. Garcia-Rates,M.; Neese,F.
     Efficient implementation of the analytical second derivatives of hartree-fock and hybrid DFT energies within the framework of the conductor-like polarizable continuum model
     J. Comput. Chem., 2019 40 1816-1828
     doi.org/10.1002/jcc.25833
  5. Garcia-Rates,M.; Neese,F.
     Effect of the Solute Cavity on the Solvation Energy and its Derivatives within the Framework of the Gaussian Charge Scheme
     J. Comput. Chem., 2020 41 922-939
     doi.org/10.1002/jcc.26139
  6. Helmich-Paris,B.; de Souza,B.; Neese,F.; Izsák,R.
     An improved chain of spheres for exchange algorithm
     J. Chem. Phys., 2021 155 104109
     doi.org/doi: 10.1063/5.0058766.
  7. Neese,F.
     The SHARK Integral Generation and Digestion System
     J. Comp. Chem., 2022  1-16
     doi.org/10.1002/jcc.26942
  8. Grimme,S.; Antony,J.; Ehrlich,S.; Krieg,H.
     A consistent and accurate ab initio parametrization of density functional dispersion correction (DFT-D) for the 94 elements H-Pu
     J. Chem. Phys., 2010 132 154104
     doi.org/10.1063/1.3382344
  9. Grimme,S.; Ehrlich,S.; Goerigk,L.
     Effect of the damping function in dispersion corrected density functional theory
     J. Comput. Chem., 2011 32(7)1456-1465
     doi.org/10.1002/jcc.21759

List of suggested additional citations. These are papers that are important in the 'surrounding' of 
of this run, or papers that preceded the highly important papers. If you like your results we are grateful for a citation.

  1. Izsak,R.; Neese,F.
     An overlap fitted chain of spheres exchange method
     J. Chem. Phys., 2011 135 144105
     doi.org/10.1063/1.3646921
  2. Izsak,R.; Hansen,A.; Neese,F.
     The resolution of identity and chain of spheres approximations for the LPNO-CCSD singles Fock term
     Molec. Phys., 2012 110 2413-2417
     doi.org/10.1080/00268976.2012.687466
  3. Neese,F.
     The ORCA program system
     WIRES Comput. Molec. Sci., 2012 2(1)73-78
     doi.org/10.1002/wcms.81
  4. Izsak,R.; Neese,F.; Klopper,W.
     Robust fitting techniques in the chain of spheres approximation to the Fock exchange: The role of the complementary space
     J. Chem. Phys., 2013 139 
     doi.org/10.1063/1.4819264
  5. Neese,F.
     Software update: the ORCA program system, version 4.0
     WIRES Comput. Molec. Sci., 2018 8(1)1-6
     doi.org/10.1002/wcms.1327
  6. Neese,F.; Wennmohs,F.; Becker,U.; Riplinger,C.
     The ORCA quantum chemistry program package
     J. Chem. Phys., 2020 152 Art. No. L224108
     doi.org/10.1063/5.0004608

List of optional additional citations

  1. Neese,F.
     Approximate second-order SCF convergence for spin unrestricted wavefunctions
     Chem. Phys. Lett., 2000 325(1-3)93-98
     doi.org/10.1016/s0009-2614(00)00662-x

Timings for individual modules:

Sum of individual times          ...     1412.837 sec (=  23.547 min)
Startup calculation              ...        4.195 sec (=   0.070 min)   0.3 %
SCF iterations                   ...      103.336 sec (=   1.722 min)   7.3 %
Property integrals               ...      440.473 sec (=   7.341 min)  31.2 %
SCF Response                     ...      611.775 sec (=  10.196 min)  43.3 %
Property calculations            ...      253.059 sec (=   4.218 min)  17.9 %
                             ****ORCA TERMINATED NORMALLY****
TOTAL RUN TIME: 0 days 0 hours 23 minutes 33 seconds 666 msec
