
                                 *****************
                                 * O   R   C   A *
                                 *****************

                                            #,                                       
                                            ###                                      
                                            ####                                     
                                            #####                                    
                                            ######                                   
                                           ########,                                 
                                     ,,################,,,,,                         
                               ,,#################################,,                 
                          ,,##########################################,,             
                       ,#########################################, ''#####,          
                    ,#############################################,,   '####,        
                  ,##################################################,,,,####,       
                ,###########''''           ''''###############################       
              ,#####''   ,,,,##########,,,,          '''####'''          '####       
            ,##' ,,,,###########################,,,                        '##       
           ' ,,###''''                  '''############,,,                           
         ,,##''                                '''############,,,,        ,,,,,,###''
      ,#''                                            '''#######################'''  
     '                                                          ''''####''''         
             ,#######,   #######,   ,#######,      ##                                
            ,#'     '#,  ##    ##  ,#'     '#,    #''#        ,####,   ,####,        
            ##       ##  ##   ,#'  ##            #'  '#       #'       #'  '#        
            ##       ##  #######   ##           ,######,      #####,   #    #        
            '#,     ,#'  ##    ##  '#,     ,#' ,#      #,     #,   #   #,  ,#        
             '#######'   ##     ##  '#######'  #'      '#     '####' # '####'        



                #########################################################
                #                        -***-                          #
                #          Department of theory and spectroscopy        #
                #                                                       #
                #                      Frank Neese                      #
                #                                                       #
                #     Directorship, Architecture, Infrastructure        #
                #                    SHARK, DRIVERS                     #
                #        Core code/Algorithms in most modules           #
                #                                                       #
                #        Max Planck Institute fuer Kohlenforschung      #
                #                Kaiser Wilhelm Platz 1                 #
                #                 D-45470 Muelheim/Ruhr                 #
                #                      Germany                          #
                #                                                       #
                #                  All rights reserved                  #
                #                        -***-                          #
                #########################################################


                         Program Version 6.0.1  -  RELEASE   -


 With contributions from (in alphabetic order):
[Max-Planck-Institut fuer Kohlenforschung]                               
  Daniel Aravena         : Magnetic Suceptibility                        
  Michael Atanasov       : Ab Initio Ligand Field Theory (pilot matlab implementation)
  Alexander A. Auer      : GIAO ZORA, VPT2 properties, NMR spectrum      
  Ute Becker             : All parallelization in ORCA, NUMFREQ, NUMCALC 
  Giovanni Bistoni       : ED, misc. LED, open-shell LED, HFLD           
  Martin Brehm           : Molecular dynamics                            
  Dmytro Bykov           : pre 5.0 version of the SCF Hessian            
  Marcos Casanova-Páez   : Triplet and SCS-CIS(D). UHF-(DLPNO)-IP/EA/STEOM-CCSD. UHF-CVS-IP/STEOM-CCSD   
  Vijay G. Chilkuri      : MRCI spin determinant printing, contributions to CSF-ICE 
  Pauline Colinet        : FMM embedding                                 
  Dipayan Datta          : RHF DLPNO-CCSD density                        
  Achintya Kumar Dutta   : EOM-CC, STEOM-CC                              
  Nicolas Foglia         : Exact transition moments, OPA infrastructure, MCD improvements    
  Dmitry Ganyushin       : Spin-Orbit,Spin-Spin,Magnetic field MRCI      
  Miquel Garcia-Rates    : C-PCM and meta-GGA Hessian, CCSD/C-PCM, Gaussian charge scheme 
  Tiago L. C. Gouveia    : GS-ROHF, GS-ROCIS                             
  Yang Guo               : DLPNO-NEVPT2, F12-NEVPT2, CIM, IAO-localization        
  Andreas Hansen         : Spin unrestricted coupled pair/coupled cluster methods 
  Ingolf Harden          : AUTO-CI MPn and infrastructure                
  Benjamin Helmich-Paris : MC-RPA, TRAH-(SCF,CASSCF), AVAS, COSX integrals, SCF dyn. polar. 
  Lee Huntington         : MR-EOM, pCC                                   
  Robert Izsak           : Overlap fitted RIJCOSX, COSX-SCS-MP3, EOM     
  Riya Kayal             : Wick's Theorem for AUTO-CI, AUTO-CI UHF-CCSDT 
  Emily Kempfer          : AUTO-CI, RHF CISDT and CCSDT                  
  Christian Kollmar      : KDIIS, OOCD, Brueckner-CCSD(T), CCSD density, CASPT2, CASPT2-K, improved NEVPT2 
  Axel Koslowski         : Symmetry handling                             
  Simone Kossmann        : meta-GGA functionals, TD-DFT gradient, OOMP2, (MP2 Hessian; deprecated post 5.0) 
  Lucas Lang             : DCDCAS                                        
  Marvin Lechner         : AUTO-CI (C++ implementation), FIC-MRCC        
  Spencer Leger          : CASSCF response                               
  Dagmar Lenk            : GEPOL surface, SMD, ORCA-2-JSON               
  Dimitrios Liakos       : Extrapolation schemes; Compound Job, initial MDCI parallelization 
  Dimitrios Manganas     : Further ROCIS development; embedding schemes. LFT, Crystal Embedding 
  Dimitrios Pantazis     : SARC Basis sets                               
  Anastasios Papadopoulos: AUTO-CI, single reference methods and gradients 
  Taras Petrenko         : pre 6.0 DFT Hessian and TD-DFT gradient, (ASA, deprecated), ECA, 1-Electron XAS/XES, NRVS 
  Peter Pinski           : DLPNO-MP2, DLPNO-MP2 Gradient                 
  Christoph Reimann      : Effective Core Potentials                     
  Marius Retegan         : Local ZFS, SOC                                
  Christoph Riplinger    : Optimizer, TS searches, QM/MM, DLPNO-CCSD(T), (RO)-DLPNO pert. Triples 
  Michael Roemelt        : Original ROCIS implementation                 
  Masaaki Saitow         : Open-shell DLPNO-CCSD energy and density      
  Barbara Sandhoefer     : DKH picture change effects                    
  Kantharuban Sivalingam : CASSCF convergence/infrastructure, NEVPT2 and variants, FIC-MRCI 
  Bernardo de Souza      : ESD, SOC TD-DFT                               
  Georgi L. Stoychev     : AutoAux, RI-MP2 NMR, DLPNO-MP2 response, X2C  
  Van Anh Tran           : RI-MP2 g-tensors                              
  Willem Van den Heuvel  : Paramagnetic NMR                              
  Zikuan Wang            : NOTCH, Electric field optimization            
  Frank Wennmohs         : Technical directorship and infrastructure     
  Hang Xu                : AUTO-CI-Response properties                   
                                                                         
[FACCTs GmbH]                                                            
  Markus Bursch, Miquel Garcia-Rates, Christoph Riplinger, Bernardo de Souza, Georgi L. Stoychev 
                                                                 
  APM, Basis sets (HGBS, AHGBS, def-TZVP (Ac-Lr), def2-XVPD (La-Lu)), CI-OPT, improved COSX, DLPNO-Multilevel,           
  DOCKER, DRACO, updates on ESD, GOAT, IRC, LR-CPCM, MBIS, meta-GGA TD-DFT gradient, ML-optimized integration grids, 
  MM, NACMEs, nearIR, NEB, NEB-TS, NL-DFT gradient (VV10), 2- and 3-layer-ONIOM, interface openCOSMO-RS, QMMM,   
  Crystal-QMMM, SF, symmetry and pop. for TD-DFT, r2SCAN hybrids, SOLVATOR                                   
                                                                         
[Other institutions]                                                     
  V. Asgeirsson          : NEB                                           
  Christoph Bannwarth    : sTDA-DFT, sTD-DFT, PBEh-3c, B97-3c, D3        
  Sebastian Ehlert       : rSCAN, r2SCAN, r2SCAN-3c, D4, dhf basis sets  
  Marvin Friede          : D4 for Fr, Ra, Ac-Lr                          
  Lars Goerigk           : TD-DFT with DH, B97 family of functionals     
  Stefan Grimme          : VdW corrections, initial TS optimization, DFT functionals, gCP, sTDA/sTD-DF 
  Waldemar Hujo          : DFT-NL                                        
  H. Jonsson             : NEB                                           
  Holger Kruse           : gCP                                           
  Marcel Mueller         : wB97X-3c, vDZP basis set                      
  Hagen Neugebauer       : wr2SCAN                                       
  Tobias Risthaus        : range-separated hybrid DFT                    
  Lukas Wittmann         : regularized MP2, r2SCAN double-hybrids, wr2SCAN        
                                                                         
We gratefully acknowledge several colleagues who have allowed us to      
interface, adapt or use parts of their codes:                            
  Ed Valeev, F. Pavosevic, A. Kumar             : LibInt (2-el integral package), F12 methods 
  Garnet Chan, S. Sharma, J. Yang, R. Olivares  : DMRG                   
  Ulf Ekstrom                                   : XCFun DFT Library      
  Mihaly Kallay                                 : mrcc  (arbitrary order and MRCC methods)
  Frank Weinhold                                : gennbo (NPA and NBO analysis)           
  Simon Mueller                                 : openCOSMO-RS                            
  Christopher J. Cramer and Donald G. Truhlar   : smd solvation model                     
  S Lehtola, MJT Oliveira, MAL Marques          : LibXC Library                           
  Liviu Ungur et al                             : ANISO software                          


 Your calculation uses the libint2 library for the computation of 2-el integrals
 For citations please refer to: http://libint.valeyev.net

 Your ORCA version has been built with support for libXC version: 6.2.2
 For citations please refer to: https://libxc.gitlab.io

 This ORCA versions uses:
   CBLAS   interface :  Fast vector & matrix operations
   LAPACKE interface :  Fast linear algebra routines
   SCALAPACK package :  Parallel linear algebra routines
   Shared memory     :  Shared parallel matrices
   BLAS/LAPACK       :  OpenBLAS 0.3.27  USE64BITINT DYNAMIC_ARCH NO_AFFINITY SkylakeX SINGLE_THREADED
        Core in use  :  SkylakeX
   Copyright (c) 2011-2014, The OpenBLAS Project


NOTE: MaxCore=8000 MB was set to SCF,MP2,MDCI,CIPSI,MRCI and CIS
      => If you want to overwrite this, your respective input block should be placed after the MaxCore statement
Your calculation utilizes the atom-pairwise dispersion correction
with the Becke-Johnson damping scheme (D3BJ)


Your calculation utilizes the SMD solvation module
Please cite in your paper:
A.V. Marenich, C.J. Cramer, D.G. Truhlar J. Phys. Chem. B, 113, (2009), 6378 

Warning: RI is on but no J-basis has been assigned. Assigning Def2/J (nothing to worry about!)
================================================================================

----- Orbital basis set information -----
Your calculation utilizes the basis: def2-TZVP
   F. Weigend and R. Ahlrichs, Phys. Chem. Chem. Phys. 7, 3297 (2005).

----- AuxJ basis set information -----
Your calculation utilizes the auxiliary basis: def2/J
   F. Weigend, Phys. Chem. Chem. Phys. 8, 1057 (2006).

================================================================================
                                        WARNINGS
                       Please study these warnings very carefully!
================================================================================



WARNING: SCAN, rSCAN, or r2SCAN functional requested.
  ===> : libXC variant has now been activated.



WARNING: your system is open-shell and RHF/RKS was chosen
  ===> : WILL SWITCH to UHF/UKS


WARNING: Geometry Optimization
  ===> : Switching off AutoStart
         For restart on a previous wavefunction, please use MOREAD

================================================================================
                                       INPUT FILE
================================================================================
NAME = rf_mecn_opt_r2s_D_A.inp
|  1> !r2scanh def2-TZVP opt d3 TightSCF SlowConv defgrid2
|  2>  
|  3> %pal
|  4> nprocs 20
|  5> end
|  6>  
|  7> %scf
|  8> MaxIter 1500
|  9> end
| 10>  
| 11> %maxcore 8000
| 12>  
| 13> !CPCM
| 14> %cpcm smd true
| 15> SMDsolvent "ACETONITRILE"
| 16> end
| 17>  
| 18> * xyz -2 2
| 19> 6        4.790427000     -0.033865800     -0.529943200
| 20> 8        5.449345000     -1.206924000     -0.894594600
| 21> 8        4.978223000      1.323071000     -0.737377200
| 22> 6        3.506687600     -0.338741600      0.376153800
| 23> 6        2.222300000      0.400524800     -0.110681600
| 24> 6        0.900506800     -0.386389800      0.175703000
| 25> 6       -0.395261200      0.487294000      0.065549000
| 26> 6       -1.705693600     -0.364773800     -0.068373600
| 27> 6       -3.005136200      0.445344800      0.258164000
| 28> 6       -4.319880200     -0.214526000     -0.270540800
| 29> 9        3.211587400     -1.692050400      0.412735200
| 30> 9        3.741061800      0.055285800      1.689948800
| 31> 9        2.125696800      1.616867800      0.483236600
| 32> 9        2.314152400      0.589704000     -1.455769200
| 33> 9        0.794028800     -1.413561400     -0.700839000
| 34> 9        0.958350600     -0.884509000      1.435093400
| 35> 9       -0.498373400      1.260265600      1.173340200
| 36> 9       -0.299075000      1.289512600     -1.020910800
| 37> 9       -1.641790400     -1.418189000      0.779523800
| 38> 9       -1.792381400     -0.831391600     -1.336863600
| 39> 9       -2.918792200      1.679227200     -0.295171200
| 40> 9       -3.119771000      0.573779800      1.598579800
| 41> 9       -4.383115600     -1.504377600      0.089127600
| 42> 9       -5.365669800      0.430528600      0.260394200
| 43> 9       -4.396020400     -0.128550600     -1.602941800
| 44> *
| 45> 
| 46>                          ****END OF INPUT****
================================================================================

                       *****************************
                       * Geometry Optimization Run *
                       *****************************

Geometry optimization settings:
Update method            Update   .... BFGS
Choice of coordinates    CoordSys .... (2022) Redundant Internals
Initial Hessian          InHess   .... Almloef's Model
Max. no of cycles        MaxIter  .... 75

Convergence Tolerances:
Energy Change            TolE     ....  5.0000e-06 Eh
Max. Gradient            TolMAXG  ....  3.0000e-04 Eh/bohr
RMS Gradient             TolRMSG  ....  1.0000e-04 Eh/bohr
Max. Displacement        TolMAXD  ....  4.0000e-03 bohr
RMS Displacement         TolRMSD  ....  2.0000e-03 bohr
Strict Convergence                .... False

------------------------------------------------------------------------------
                        ORCA OPTIMIZATION COORDINATE SETUP
------------------------------------------------------------------------------

The optimization will be done in redundant internal coordinates (2022)
Making redundant internal coordinates   ...  (2022 redundants) done
Evaluating the initial hessian          ...  (Almloef) done
Evaluating the coordinates              ...  done
Calculating the B-matrix                .... done
Calculating the G-matrix                .... done
Diagonalizing the G-matrix              .... done
Small eigenvalue found = 5.470e-03
Small eigenvalue found = 1.492e-02
Small eigenvalue found = 2.979e-02
The first mode is                       ....   41
The number of degrees of freedom        ....   69

    -----------------------------------------------------------------
                    Redundant Internal Coordinates


    -----------------------------------------------------------------
         Definition                    Initial Value    Approx d2E/dq
    -----------------------------------------------------------------
      1. B(O   1,C   0)                  1.3940         0.551454   
      2. B(O   2,C   0)                  1.3855         0.568952   
      3. B(C   3,C   0)                  1.6006         0.288221   
      4. B(C   4,C   3)                  1.5599         0.334759   
      5. B(C   5,C   4)                  1.5647         0.328824   
      6. B(C   6,C   5)                  1.5667         0.326486   
      7. B(C   7,C   6)                  1.5688         0.323927   
      8. B(C   8,C   7)                  1.5657         0.327637   
      9. B(C   9,C   8)                  1.5632         0.330714   
     10. B(F  10,C   3)                  1.3856         0.528443   
     11. B(F  11,C   3)                  1.3915         0.517117   
     12. B(F  12,C   4)                  1.3570         0.586881   
     13. B(F  13,C   4)                  1.3614         0.577499   
     14. B(F  14,C   5)                  1.3545         0.592326   
     15. B(F  15,C   5)                  1.3556         0.590092   
     16. B(F  16,C   6)                  1.3547         0.591865   
     17. B(F  17,C   6)                  1.3540         0.593567   
     18. B(F  18,C   7)                  1.3538         0.593973   
     19. B(F  19,C   7)                  1.3544         0.592672   
     20. B(F  20,C   8)                  1.3550         0.591238   
     21. B(F  21,C   8)                  1.3514         0.599114   
     22. B(F  22,C   9)                  1.3406         0.623533   
     23. B(F  23,C   9)                  1.3385         0.628179   
     24. B(F  24,C   9)                  1.3373         0.630929   
     25. A(O   1,C   0,C   3)          111.5249         0.369222   
     26. A(O   1,C   0,O   2)          136.1318         0.413163   
     27. A(O   2,C   0,C   3)          112.3347         0.371210   
     28. A(C   0,C   3,F  10)          111.8265         0.364982   
     29. A(C   4,C   3,F  11)          107.4072         0.373095   
     30. A(F  10,C   3,F  11)          106.7094         0.399684   
     31. A(C   0,C   3,C   4)          113.1687         0.341363   
     32. A(C   0,C   3,F  11)          110.2099         0.363632   
     33. A(C   4,C   3,F  10)          107.2033         0.374492   
     34. A(C   3,C   4,F  12)          110.2926         0.381351   
     35. A(F  12,C   4,F  13)          108.2194         0.415201   
     36. A(C   3,C   4,C   5)          113.5839         0.349005   
     37. A(C   5,C   4,F  13)          107.9208         0.379109   
     38. A(C   3,C   4,F  13)          108.5818         0.380286   
     39. A(C   5,C   4,F  12)          108.0911         0.380169   
     40. A(F  14,C   5,F  15)          109.0206         0.417483   
     41. A(C   4,C   5,C   6)          113.9128         0.347536   
     42. A(C   6,C   5,F  15)          107.7906         0.380059   
     43. A(C   4,C   5,F  15)          108.5900         0.380529   
     44. A(C   6,C   5,F  14)          108.2026         0.380308   
     45. A(C   4,C   5,F  14)          109.2282         0.380779   
     46. A(C   5,C   6,C   7)          113.2023         0.346660   
     47. A(F  16,C   6,F  17)          108.8752         0.417862   
     48. A(C   7,C   6,F  17)          108.2186         0.379927   
     49. A(C   5,C   6,F  17)          109.1523         0.380446   
     50. A(C   7,C   6,F  16)          108.4284         0.379738   
     51. A(C   5,C   6,F  16)          108.8835         0.380256   
     52. A(C   8,C   7,F  18)          108.1296         0.380723   
     53. A(C   6,C   7,F  18)          109.2524         0.379972   
     54. A(F  18,C   7,F  19)          108.7561         0.418014   
     55. A(C   6,C   7,C   8)          113.2298         0.346865   
     56. A(C   8,C   7,F  19)          108.6915         0.380579   
     57. A(C   6,C   7,F  19)          108.6955         0.379828   
     58. A(C   9,C   8,F  21)          107.7127         0.381912   
     59. A(C   7,C   8,F  21)          109.0521         0.381293   
     60. A(C   9,C   8,F  20)          107.4499         0.381036   
     61. A(C   7,C   8,C   9)          114.1471         0.348078   
     62. A(F  20,C   8,F  21)          108.8987         0.418476   
     63. A(C   7,C   8,F  20)          109.4572         0.380419   
     64. A(F  23,C   9,F  24)          108.6464         0.426961   
     65. A(F  22,C   9,F  24)          109.0552         0.426394   
     66. A(C   8,C   9,F  24)          110.9604         0.385362   
     67. A(F  22,C   9,F  23)          108.6877         0.426061   
     68. A(C   8,C   9,F  23)          108.6349         0.385069   
     69. A(C   8,C   9,F  22)          110.7995         0.384572   
     70. D(F  11,C   3,C   0,O   1)    108.6317         0.006601   
     71. D(F  10,C   3,C   0,O   1)     -9.8890         0.006601   
     72. D(C   4,C   3,C   0,O   2)     49.8076         0.006601   
     73. D(C   4,C   3,C   0,O   1)   -131.0839         0.006601   
     74. D(F  10,C   3,C   0,O   2)    171.0025         0.006601   
     75. D(C   5,C   4,C   3,C   0)    148.6429         0.009100   
     76. D(F  12,C   4,C   3,F  11)     32.0233         0.009100   
     77. D(C   5,C   4,C   3,F  11)    -89.4885         0.009100   
     78. D(F  12,C   4,C   3,C   0)    -89.8453         0.009100   
     79. D(F  12,C   4,C   3,F  10)    146.3851         0.009100   
     80. D(C   5,C   4,C   3,F  10)     24.8733         0.009100   
     81. D(F  14,C   5,C   4,C   3)    -74.9661         0.008811   
     82. D(C   6,C   5,C   4,F  12)     41.2001         0.008811   
     83. D(C   6,C   5,C   4,C   3)    163.9326         0.008811   
     84. D(C   6,C   5,C   4,F  13)    -75.6292         0.008811   
     85. D(F  14,C   5,C   4,F  13)     45.4721         0.008811   
     86. D(F  14,C   5,C   4,F  12)    162.3014         0.008811   
     87. D(F  16,C   6,C   5,F  14)    161.9826         0.008700   
     88. D(F  16,C   6,C   5,C   4)    -76.3465         0.008700   
     89. D(C   7,C   6,C   5,F  15)    -76.4529         0.008700   
     90. D(C   7,C   6,C   5,F  14)     41.3107         0.008700   
     91. D(F  16,C   6,C   5,F  15)     44.2190         0.008700   
     92. D(C   7,C   6,C   5,C   4)    162.9815         0.008700   
     93. D(F  18,C   7,C   6,F  17)    162.9167         0.008578   
     94. D(F  18,C   7,C   6,F  16)    -79.1358         0.008578   
     95. D(F  18,C   7,C   6,C   5)     41.7939         0.008578   
     96. D(C   8,C   7,C   6,F  17)    -76.5134         0.008578   
     97. D(C   8,C   7,C   6,F  16)     41.4341         0.008578   
     98. D(C   8,C   7,C   6,C   5)    162.3638         0.008578   
     99. D(C   9,C   8,C   7,F  18)    -76.3785         0.008755   
    100. D(C   9,C   8,C   7,C   6)    162.4166         0.008755   
    101. D(F  20,C   8,C   7,F  19)    -78.9355         0.008755   
    102. D(F  20,C   8,C   7,F  18)    163.1633         0.008755   
    103. D(F  20,C   8,C   7,C   6)     41.9584         0.008755   
    104. D(C   9,C   8,C   7,F  19)     41.5227         0.008755   
    105. D(F  23,C   9,C   8,F  21)     48.1091         0.008903   
    106. D(F  23,C   9,C   8,F  20)    -69.0724         0.008903   
    107. D(F  23,C   9,C   8,C   7)    169.3552         0.008903   
    108. D(F  22,C   9,C   8,F  21)    -71.2185         0.008903   
    109. D(F  22,C   9,C   8,F  20)    171.5999         0.008903   
    110. D(F  22,C   9,C   8,C   7)     50.0276         0.008903   
    -----------------------------------------------------------------

Number of atoms                         .... 25
Number of degrees of freedom            .... 110


         *************************************************************
         *                GEOMETRY OPTIMIZATION CYCLE   1            *
         *************************************************************
---------------------------------
CARTESIAN COORDINATES (ANGSTROEM)
---------------------------------
  C      4.790427   -0.033866   -0.529943
  O      5.449345   -1.206924   -0.894595
  O      4.978223    1.323071   -0.737377
  C      3.506688   -0.338742    0.376154
  C      2.222300    0.400525   -0.110682
  C      0.900507   -0.386390    0.175703
  C     -0.395261    0.487294    0.065549
  C     -1.705694   -0.364774   -0.068374
  C     -3.005136    0.445345    0.258164
  C     -4.319880   -0.214526   -0.270541
  F      3.211587   -1.692050    0.412735
  F      3.741062    0.055286    1.689949
  F      2.125697    1.616868    0.483237
  F      2.314152    0.589704   -1.455769
  F      0.794029   -1.413561   -0.700839
  F      0.958351   -0.884509    1.435093
  F     -0.498373    1.260266    1.173340
  F     -0.299075    1.289513   -1.020911
  F     -1.641790   -1.418189    0.779524
  F     -1.792381   -0.831392   -1.336864
  F     -2.918792    1.679227   -0.295171
  F     -3.119771    0.573780    1.598580
  F     -4.383116   -1.504378    0.089128
  F     -5.365670    0.430529    0.260394
  F     -4.396020   -0.128551   -1.602942

----------------------------
CARTESIAN COORDINATES (A.U.)
----------------------------
  NO LB      ZA    FRAG     MASS         X           Y           Z
   0 C     6.0000    0    12.011    9.052595   -0.063997   -1.001448
   1 O     8.0000    0    15.999   10.297770   -2.280756   -1.690539
   2 O     8.0000    0    15.999    9.407478    2.500242   -1.393441
   3 C     6.0000    0    12.011    6.626679   -0.640129    0.710828
   4 C     6.0000    0    12.011    4.199538    0.756882   -0.209158
   5 C     6.0000    0    12.011    1.701711   -0.730171    0.332031
   6 C     6.0000    0    12.011   -0.746935    0.920852    0.123870
   7 C     6.0000    0    12.011   -3.223294   -0.689323   -0.129207
   8 C     6.0000    0    12.011   -5.678884    0.841580    0.487859
   9 C     6.0000    0    12.011   -8.163391   -0.405395   -0.511248
  10 F     9.0000    0    18.998    6.069021   -3.197512    0.779956
  11 F     9.0000    0    18.998    7.069582    0.104475    3.193540
  12 F     9.0000    0    18.998    4.016985    3.055437    0.913185
  13 F     9.0000    0    18.998    4.373114    1.114379   -2.751005
  14 F     9.0000    0    18.998    1.500497   -2.671244   -1.324394
  15 F     9.0000    0    18.998    1.811020   -1.671480    2.711934
  16 F     9.0000    0    18.998   -0.941789    2.381557    2.217292
  17 F     9.0000    0    18.998   -0.565170    2.436826   -1.929242
  18 F     9.0000    0    18.998   -3.102534   -2.679989    1.473086
  19 F     9.0000    0    18.998   -3.387110   -1.571102   -2.526306
  20 F     9.0000    0    18.998   -5.515718    3.173280   -0.557793
  21 F     9.0000    0    18.998   -5.895513    1.084287    3.020878
  22 F     9.0000    0    18.998   -8.282888   -2.842862    0.168427
  23 F     9.0000    0    18.998  -10.139646    0.813581    0.492074
  24 F     9.0000    0    18.998   -8.307275   -0.242925   -3.029121

--------------------------------
INTERNAL COORDINATES (ANGSTROEM)
--------------------------------
 C      0   0   0     0.000000000000     0.00000000     0.00000000
 O      1   0   0     1.393990356793     0.00000000     0.00000000
 O      1   2   0     1.385486802956   136.13177198     0.00000000
 C      1   2   3     1.600608594862   111.52489317   181.18992567
 C      4   1   2     1.559863783763   113.16872737   228.91614990
 C      5   4   1     1.564732561934   113.58394786   148.64287440
 C      6   5   4     1.566675459667   113.91280616   163.93256239
 C      7   6   5     1.568817348692   113.20226571   162.98152714
 C      8   7   6     1.565717094808   113.22984595   162.36375422
 C      9   8   7     1.563173062643   114.14707705   162.41661495
 F      4   1   2     1.385592665621   111.82651119   350.11101305
 F      4   1   2     1.391490625050   110.20991618   108.63170802
 F      5   4   1     1.357041377479   110.29260564   270.15468021
 F      5   4   1     1.361428031433   108.58179722    28.57841973
 F      6   5   4     1.354527570075   109.22822656   285.03385927
 F      6   5   4     1.355556277776   108.59004089    43.81583148
 F      7   6   5     1.354739297058   108.88346185   283.65347401
 F      7   6   5     1.353957667090   109.15230848    42.38718856
 F      8   7   6     1.353771473879   109.25240264    41.79387651
 F      8   7   6     1.354368423305   108.69554158   283.25540020
 F      9   8   7     1.355028009646   109.45719767    41.95842364
 F      9   8   7     1.351425618925   109.05210362   282.91820052
 F     10   9   8     1.340551089588   110.79953142    50.02756898
 F     10   9   8     1.338530275591   108.63493714   169.35523750
 F     10   9   8     1.337341214598   110.96044107   288.72891896

---------------------------
INTERNAL COORDINATES (A.U.)
---------------------------
 C      0   0   0     0.000000000000     0.00000000     0.00000000
 O      1   0   0     2.634260007667     0.00000000     0.00000000
 O      1   2   0     2.618190619750   136.13177198     0.00000000
 C      1   2   3     3.024711891890   111.52489317   181.18992567
 C      4   1   2     2.947715357535   113.16872737   228.91614990
 C      5   4   1     2.956916014884   113.58394786   148.64287440
 C      6   5   4     2.960587559506   113.91280616   163.93256239
 C      7   6   5     2.964635143173   113.20226571   162.98152714
 C      8   7   6     2.958776512386   113.22984595   162.36375422
 C      9   8   7     2.953968988318   114.14707705   162.41661495
 F      4   1   2     2.618390671194   111.82651119   350.11101305
 F      4   1   2     2.629536199263   110.20991618   108.63170802
 F      5   4   1     2.564436555835   110.29260564   270.15468021
 F      5   4   1     2.572726130452   108.58179722    28.57841973
 F      6   5   4     2.559686148288   109.22822656   285.03385927
 F      6   5   4     2.561630124115   108.59004089    43.81583148
 F      7   6   5     2.560086254300   108.88346185   283.65347401
 F      7   6   5     2.558609187723   109.15230848    42.38718856
 F      8   7   6     2.558257333546   109.25240264    41.79387651
 F      8   7   6     2.559385404477   108.69554158   283.25540020
 F      9   8   7     2.560631842023   109.45719767    41.95842364
 F      9   8   7     2.553824310132   109.05210362   282.91820052
 F     10   9   8     2.533274427850   110.79953142    50.02756898
 F     10   9   8     2.529455642830   108.63493714   169.35523750
 F     10   9   8     2.527208643196   110.96044107   288.72891896

---------------------
BASIS SET INFORMATION
---------------------
There are 3 groups of distinct atoms

 Group   1 Type C   : 11s6p2d1f contracted to 5s3p2d1f pattern {62111/411/11/1}
 Group   2 Type O   : 11s6p2d1f contracted to 5s3p2d1f pattern {62111/411/11/1}
 Group   3 Type F   : 11s6p2d1f contracted to 5s3p2d1f pattern {62111/411/11/1}

Atom   0C    basis set group =>   1
Atom   1O    basis set group =>   2
Atom   2O    basis set group =>   2
Atom   3C    basis set group =>   1
Atom   4C    basis set group =>   1
Atom   5C    basis set group =>   1
Atom   6C    basis set group =>   1
Atom   7C    basis set group =>   1
Atom   8C    basis set group =>   1
Atom   9C    basis set group =>   1
Atom  10F    basis set group =>   3
Atom  11F    basis set group =>   3
Atom  12F    basis set group =>   3
Atom  13F    basis set group =>   3
Atom  14F    basis set group =>   3
Atom  15F    basis set group =>   3
Atom  16F    basis set group =>   3
Atom  17F    basis set group =>   3
Atom  18F    basis set group =>   3
Atom  19F    basis set group =>   3
Atom  20F    basis set group =>   3
Atom  21F    basis set group =>   3
Atom  22F    basis set group =>   3
Atom  23F    basis set group =>   3
Atom  24F    basis set group =>   3
---------------------------------
AUXILIARY/J BASIS SET INFORMATION
---------------------------------
There are 3 groups of distinct atoms

 Group   1 Type C   : 12s5p4d2f1g contracted to 6s4p3d1f1g pattern {711111/2111/211/2/1}
 Group   2 Type O   : 12s5p4d2f1g contracted to 6s4p3d1f1g pattern {711111/2111/211/2/1}
 Group   3 Type F   : 12s5p4d2f1g contracted to 6s4p3d1f1g pattern {711111/2111/211/2/1}

Atom   0C    basis set group =>   1
Atom   1O    basis set group =>   2
Atom   2O    basis set group =>   2
Atom   3C    basis set group =>   1
Atom   4C    basis set group =>   1
Atom   5C    basis set group =>   1
Atom   6C    basis set group =>   1
Atom   7C    basis set group =>   1
Atom   8C    basis set group =>   1
Atom   9C    basis set group =>   1
Atom  10F    basis set group =>   3
Atom  11F    basis set group =>   3
Atom  12F    basis set group =>   3
Atom  13F    basis set group =>   3
Atom  14F    basis set group =>   3
Atom  15F    basis set group =>   3
Atom  16F    basis set group =>   3
Atom  17F    basis set group =>   3
Atom  18F    basis set group =>   3
Atom  19F    basis set group =>   3
Atom  20F    basis set group =>   3
Atom  21F    basis set group =>   3
Atom  22F    basis set group =>   3
Atom  23F    basis set group =>   3
Atom  24F    basis set group =>   3


           ************************************************************
           *        Program running with 20 parallel MPI-processes    *
           *              working on a common directory               *
           ************************************************************
------------------------------------------------------------------------------
                             ORCA STARTUP CALCULATIONS
                           -- RI-GTO INTEGRALS CHOSEN --
------------------------------------------------------------------------------
------------------------------------------------------------------------------
                   ___                                                        
                  /   \      - P O W E R E D   B Y -                         
                 /     \                                                     
                 |  |  |   _    _      __       _____    __    __             
                 |  |  |  | |  | |    /  \     |  _  \  |  |  /  |          
                  \  \/   | |  | |   /    \    | | | |  |  | /  /          
                 / \  \   | |__| |  /  /\  \   | |_| |  |  |/  /          
                |  |  |   |  __  | /  /__\  \  |    /   |      \           
                |  |  |   | |  | | |   __   |  |    \   |  |\   \          
                \     /   | |  | | |  |  |  |  | |\  \  |  | \   \       
                 \___/    |_|  |_| |__|  |__|  |_| \__\ |__|  \__/        
                                                                              
                      - O R C A' S   B I G   F R I E N D -                    
                                      &                                       
                       - I N T E G R A L  F E E D E R -                       
                                                                              
 v1 FN, 2020, v2 2021, v3 2022-2024                                           
------------------------------------------------------------------------------


----------------------
SHARK INTEGRAL PACKAGE
----------------------

Number of atoms                             ...     25
Number of basis functions                   ...    775
Number of shells                            ...    275
Maximum angular momentum                    ...      3
Integral batch strategy                     ... SHARK/LIBINT Hybrid
RI-J (if used) integral strategy            ... SPLIT-RIJ (Revised 2003 algorithm where possible)
Printlevel                                  ...      1
Contraction scheme used                     ... SEGMENTED contraction
Prescreening option                         ... SCHWARTZ
   Thresh                                   ... 2.500e-11
   Tcut                                     ... 2.500e-12
   Tpresel                                  ... 2.500e-12 
Coulomb Range Separation                    ... NOT USED
Exchange Range Separation                   ... NOT USED
Multipole approximations                    ... NOT USED
Finite Nucleus Model                        ... NOT USED
CABS basis                                  ... NOT available
Auxiliary Coulomb fitting basis             ... AVAILABLE
   # of basis functions in Aux-J            ...   1225
   # of shells in Aux-J                     ...    375
   Maximum angular momentum in Aux-J        ...      4
Auxiliary J/K fitting basis                 ... NOT available
Auxiliary Correlation fitting basis         ... NOT available
Auxiliary 'external' fitting basis          ... NOT available

Checking pre-screening integrals            ... done (  0.0 sec) Dimension = 275
Check shell pair data                       ... done (  0.0 sec)
Shell pair information
Shell pair cut-off parameter TPreSel        ...   2.5e-12
Total number of shell pairs                 ...     37950
Shell pairs after pre-screening             ...     23325
Total number of primitive shell pairs       ...    125800
Primitive shell pairs kept                  ...     49419
          la=0 lb=0:   4351 shell pairs
          la=1 lb=0:   6349 shell pairs
          la=1 lb=1:   2227 shell pairs
          la=2 lb=0:   3461 shell pairs
          la=2 lb=1:   2576 shell pairs
          la=2 lb=2:    727 shell pairs
          la=3 lb=0:   1568 shell pairs
          la=3 lb=1:   1240 shell pairs
          la=3 lb=2:    666 shell pairs
          la=3 lb=3:    160 shell pairs

Calculating one electron integrals          ... done (  0.0 sec)
Calculating RI/J V-Matrix + Cholesky decomp.... done (  0.1 sec)
Calculating Nuclear repulsion               ... done (  0.0 sec) ENN=   2860.975784253119 Eh

Diagonalization of the overlap matrix:
Smallest eigenvalue                        ... 6.047e-05
Time for diagonalization                   ...    0.169 sec
Threshold for overlap eigenvalues          ... 1.000e-07
Number of eigenvalues below threshold      ... 0
Time for construction of square roots      ...    0.058 sec
Total time needed                          ...    0.262 sec

-------------------
DFT GRID GENERATION
-------------------

General Integration Accuracy     IntAcc      ... 4.388
Radial Grid Type                 RadialGrid  ... OptM3 with GC (2021)
Angular Grid (max. ang.)         AngularGrid ... 4 (Lebedev-302)
Angular grid pruning method      GridPruning ... 4 (adaptive)
Weight generation scheme         WeightScheme... mBecke (2022)
Basis function cutoff            BFCut       ... 1.0000e-11
Integration weight cutoff        WCut        ... 1.0000e-14
Partially contracted basis set               ... off
Rotationally invariant grid construction     ... off
Angular grids for H and He will be reduced by one unit

Total number of grid points                  ...   151489
Total number of batches                      ...     2379
Average number of points per batch           ...       63
Average number of grid points per atom       ...     6060

--------------------
COSX GRID GENERATION
--------------------

GRIDX 1
-------
General Integration Accuracy     IntAcc      ... 3.816
Radial Grid Type                 RadialGrid  ... OptM3 with GC (2021)
Angular Grid (max. ang.)         AngularGrid ... 1 (Lebedev-50)
Angular grid pruning method      GridPruning ... 4 (adaptive)
Weight generation scheme         WeightScheme... mBecke (2022)
Basis function cutoff            BFCut       ... 1.0000e-11
Integration weight cutoff        WCut        ... 1.0000e-14
Partially contracted basis set               ... on
Rotationally invariant grid construction     ... off
Angular grids for H and He will be reduced by one unit

Total number of grid points                  ...    19031
Total number of batches                      ...      159
Average number of points per batch           ...      119
Average number of grid points per atom       ...      761
UseSFitting                                  ... on

GRIDX 2
-------
General Integration Accuracy     IntAcc      ... 4.020
Radial Grid Type                 RadialGrid  ... OptM3 with GC (2021)
Angular Grid (max. ang.)         AngularGrid ... 2 (Lebedev-110)
Angular grid pruning method      GridPruning ... 4 (adaptive)
Weight generation scheme         WeightScheme... mBecke (2022)
Basis function cutoff            BFCut       ... 1.0000e-11
Integration weight cutoff        WCut        ... 1.0000e-14
Partially contracted basis set               ... on
Rotationally invariant grid construction     ... off
Angular grids for H and He will be reduced by one unit

Total number of grid points                  ...    45091
Total number of batches                      ...      367
Average number of points per batch           ...      122
Average number of grid points per atom       ...     1804
UseSFitting                                  ... on

GRIDX 3
-------
General Integration Accuracy     IntAcc      ... 4.338
Radial Grid Type                 RadialGrid  ... OptM3 with GC (2021)
Angular Grid (max. ang.)         AngularGrid ... 3 (Lebedev-194)
Angular grid pruning method      GridPruning ... 4 (adaptive)
Weight generation scheme         WeightScheme... mBecke (2022)
Basis function cutoff            BFCut       ... 1.0000e-11
Integration weight cutoff        WCut        ... 1.0000e-14
Partially contracted basis set               ... on
Rotationally invariant grid construction     ... off
Angular grids for H and He will be reduced by one unit

Total number of grid points                  ...    99878
Total number of batches                      ...      788
Average number of points per batch           ...      126
Average number of grid points per atom       ...     3995
UseSFitting                                  ... on
Initializing property integral containers    ... done (  0.0 sec)

SHARK setup successfully completed in   3.8 seconds

Maximum memory used throughout the entire STARTUP-calculation: 59.4 MB


           ************************************************************
           *        Program running with 20 parallel MPI-processes    *
           *              working on a common directory               *
           ************************************************************
-------------------------------------------------------------------------------
                                 ORCA GUESS
                   Start orbitals & Density for SCF / CASSCF
-------------------------------------------------------------------------------

------------
SCF SETTINGS
------------
Hamiltonian:
 Density Functional     Method          .... DFT(GTOs)
  Functional kind                       .... Exchange
  Functional name                       .... Re-regularized SCAN exchange by Furness et al
  Functional family                     .... MGGA
  Functional refs                              
    [ 0] J. W. Furness, A. D. Kaplan, J. Ning, J. P. Perdew, and J. Sun.,  J. Phys. Chem. Lett. 11, 8208-8215 (2020), doi: 10.1021/acs.jpclett.0c02405
    [ 1] J. W. Furness, A. D. Kaplan, J. Ning, J. P. Perdew, and J. Sun.,  J. Phys. Chem. Lett. 11, 9248-9248 (2020), doi: 10.1021/acs.jpclett.0c03077
  Functional external parameters        .... 6
    Parameter  0 _c1        =  6.670000e-01 : c1 parameter        
    Parameter  1 _c2        =  8.000000e-01 : c2 parameter        
    Parameter  2 _d         =  1.240000e+00 : d parameter         
    Parameter  3 _k1        =  6.500000e-02 : k1 parameter        
    Parameter  4 _eta       =  1.000000e-03 : eta parameter       
    Parameter  5 _dp2       =  3.610000e-01 : dp2 parameter       
  Functional kind                       .... Correlation
  Functional name                       .... Re-regularized SCAN correlation by Furness et al
  Functional family                     .... MGGA
  Functional refs                              
    [ 0] J. W. Furness, A. D. Kaplan, J. Ning, J. P. Perdew, and J. Sun.,  J. Phys. Chem. Lett. 11, 8208-8215 (2020), doi: 10.1021/acs.jpclett.0c02405
    [ 1] J. W. Furness, A. D. Kaplan, J. Ning, J. P. Perdew, and J. Sun.,  J. Phys. Chem. Lett. 11, 9248-9248 (2020), doi: 10.1021/acs.jpclett.0c03077
  Functional external parameters        .... 1
    Parameter  0 _eta       =  1.000000e-03 : Regularization parameter
 Gradients option       PostSCFGGA      .... off
 Hybrid DFT is turned on
   Fraction HF Exchange ScalHFX         ....  0.100000
   Scaling of DF-GGA-X  ScalDFX         ....  0.900000
   Scaling of DF-GGA-C  ScalDFC         ....  1.000000
   Scaling of DF-LDA-C  ScalLDAC        ....  1.000000
   Perturbative correction              ....  0.000000
   NL short-range parameter             .... 11.900000
 RI-approximation to the Coulomb term is turned on
   Number of AuxJ basis functions       .... 1225
   RIJ-COSX (HFX calculated with COS-X)).... on


General Settings:
 Integral files         IntName         .... rf_mecn_opt_r2s_D_A
 Hartree-Fock type      HFTyp           .... UHF
 Total Charge           Charge          ....   -2
 Multiplicity           Mult            ....    2
 Number of Electrons    NEL             ....  201
 Basis Dimension        Dim             ....  775
 Nuclear Repulsion      ENuc            ....   2860.9757842531 Eh

Convergence Acceleration:
 AO-DIIS                CNVDIIS         .... on
   Start iteration      DIISMaxIt       ....     0
   Startup error        DIISStart       ....  0.200000
   # of expansion vecs  DIISMaxEq       ....     5
   Bias factor          DIISBfac        ....   1.050
   Max. coefficient     DIISMaxC        ....  10.000
 MO-DIIS                CNVKDIIS        .... off
 Trust-Rad. Augm. Hess. CNVTRAH         .... auto
   Auto Start mean grad. ratio tolernc. ....  1.125000
   Auto Start start iteration           ....    50
   Auto Start num. interpolation iter.  ....    10
   Max. Number of Micro iterations      ....    24
   Max. Number of Macro iterations      .... Maxiter - #DIIS iter
   Number of Davidson start vectors     ....     2
   Converg. threshold    (grad. norm)   ....   1.000e-05
   Grad. Scal. Fac. for Micro threshold ....   0.100
   Minimum threshold for Micro iter.    ....   1.000e-02
   NR start threshold (gradient norm)   ....   1.000e-04
   Initial trust radius                 ....   0.400
   Minimum AH scaling param. (alpha)    ....   1.000
   Maximum AH scaling param. (alpha)    .... 1000.000
   Quad. conv. algorithm                .... NR
   White noise on init. David. guess    .... on
   Maximum white noise                  ....   0.010
   Pseudo random numbers                .... off
   Inactive MOs                         .... canonical
   Orbital update algorithm             .... Taylor
   Preconditioner                       .... Diag
   Full preconditioner red. dimension   ....   250
 SOSCF                  CNVSOSCF        .... on
   Start iteration      SOSCFMaxIt      ....   150
   Startup grad/error   SOSCFStart      ....  0.001000
   Hessian update       SOSCFHessUp     .... L-BFGS
 Level Shifting         CNVShift        .... on
   Level shift para.    LevelShift      ....    0.2500
   Turn off err/grad.   ShiftErr        ....    0.0000
 Zerner damping         CNVZerner       .... off
 Static damping         CNVDamp         .... on
   Fraction old density DampFac         ....    0.8500
   Max. Damping (<1)    DampMax         ....    0.9800
   Min. Damping (>=0)   DampMin         ....    0.0000
   Turn off err/grad.   DampErr         ....    0.0300

SCF Procedure:
 Maximum # iterations   MaxIter         ....  1500
 SCF integral mode      SCFMode         .... Direct
   Integral package                     .... SHARK and LIBINT hybrid scheme
 Reset frequency        DirectResetFreq ....    20
 Integral Threshold     Thresh          ....  2.500e-11 Eh
 Primitive CutOff       TCut            ....  2.500e-12 Eh

Convergence Tolerance:
 Convergence Check Mode ConvCheckMode   .... Total+1el-Energy
 Convergence forced     ConvForced      .... 0
 Energy Change          TolE            ....  1.000e-08 Eh
 1-El. energy change                    ....  1.000e-05 Eh
 Orbital Gradient       TolG            ....  1.000e-05
 Orbital Rotation angle TolX            ....  1.000e-05
 DIIS Error             TolErr          ....  5.000e-07

------------------------------
INITIAL GUESS: MODEL POTENTIAL
------------------------------
Loading Hartree-Fock densities                     ... done
Calculating cut-offs                               ... done
Initializing the effective Hamiltonian             ... done
Setting up the integral package (SHARK)            ... done
Starting the Coulomb interaction                   ... done (   0.2 sec)
Making the grid                                    ... done (   0.5 sec)
Mapping shells                                     ... done
Starting the XC term evaluation                    ... done (   0.2 sec)
  promolecular density results
     # of electrons  =    199.000496603
     EX              =   -207.068070787
     EC              =     -6.981308686
     EX+EC           =   -214.049379473
Transforming the Hamiltonian                       ... done (   0.1 sec)
Diagonalizing the Hamiltonian                      ... done (   0.1 sec)
Back transforming the eigenvectors                 ... done (   0.0 sec)
Now organizing SCF variables                       ... done
                      ------------------
                      INITIAL GUESS DONE (   1.3 sec)
                      ------------------
             **** ENERGY FILE WAS UPDATED (rf_mecn_opt_r2s_D_A.en.tmp) ****
Finished Guess after   2.1 sec
Maximum memory used throughout the entire GUESS-calculation: 48.5 MB


           ************************************************************
           *        Program running with 20 parallel MPI-processes    *
           *              working on a common directory               *
           ************************************************************

-------------------------------------------------------------------------------------------
                                      ORCA LEAN-SCF
                              memory conserving SCF solver
-------------------------------------------------------------------------------------------

--------------------
CPCM SOLVATION MODEL
--------------------
CPCM parameters:
  Epsilon                                         ...      35.6880
  Refrac                                          ...       1.3442
  Rsolv                                           ...       1.3000
  Surface type                                    ... GAUSSIAN VDW
  Discretization scheme                           ... Constant charge density
    Threshold for H atoms                         ...       5.0000 (charges/Ang^2)
    Threshold for non-H atoms                     ...       5.0000 (charges/Ang^2)
  Epsilon function type                           ...         CPCM
Solvent:                                          ... ACETONITRILE
SMD-CDS solvent descriptors:
  Soln                                            ...       1.3442
  Soln25                                          ...       1.3416
  Sola                                            ...       0.0700
  Solb                                            ...       0.3200
  Solg                                            ...      41.2500
  Solc                                            ...       0.0000
  Solh                                            ...       0.0000
Radii:
  Scheme                                          ... Element-dependent radii
  Radius for C  used is    3.4960 Bohr (=   1.8500 Ang.)
  Radius for O  used is    4.0969 Bohr (=   2.1680 Ang.)
  Radius for F  used is    3.2692 Bohr (=   1.7300 Ang.)
Calculating surface                               ...        done! (  0.0s)
Cavity surface points                             ...         2164
Cavity Volume                                     ...    2191.6855
Cavity Surface-area                               ...    1131.7098
Calculating surface distance matrix               ...        done! (  0.0s)
Performing Cholesky decomposition & store         ...        done! (  0.1s)
Overall time for CPCM initialization              ...                 0.1s

----------------------------------------D-I-I-S--------------------------------------------
Iteration    Energy (Eh)           Delta-E    RMSDP     MaxDP     DIISErr   Damp  Time(sec)
-------------------------------------------------------------------------------------------
               ***  Starting incremental Fock matrix formation  ***
    1    -1952.4123030542173183     0.00e+00  5.99e-04  1.21e-01  1.93e-01  0.850   8.5
Warning: op=0 Small HOMO/LUMO gap (  -0.062) - skipping pre-diagonalization
         Will do a full diagonalization
    2    -1952.5958217302581943    -1.84e-01  8.85e-04  2.17e-01  1.30e-01  0.850   5.9
                               ***Turning on AO-DIIS***
    3    -1952.6957694052821353    -9.99e-02  5.05e-04  7.98e-02  7.21e-02  0.850   5.1
    4    -1952.7519235812474108    -5.62e-02  3.20e-04  4.53e-02  4.98e-02  0.850   5.0
    5    -1952.7906155468149336    -3.87e-02  2.14e-04  2.42e-02  4.00e-02  0.850   4.9
    6    -1952.8206616526445032    -3.00e-02  1.51e-04  2.17e-02  3.44e-02  0.850   4.9
    7    -1952.8453573810606940    -2.47e-02  1.15e-04  2.08e-02  2.98e-02  0.850   4.8
    8    -1952.8662285003588295    -2.09e-02  6.26e-04  1.13e-01  2.53e-02  0.000   5.0
    9    -1952.9807895419276065    -1.15e-01  6.63e-05  7.42e-03  3.06e-03  0.000   5.1
   10    -1952.9810988401436589    -3.09e-04  4.74e-05  4.73e-03  2.55e-03  0.000   4.9
                              *** Initializing SOSCF ***
---------------------------------------S-O-S-C-F--------------------------------------
Iteration    Energy (Eh)           Delta-E    RMSDP     MaxDP     MaxGrad    Time(sec)
--------------------------------------------------------------------------------------
   11    -1952.9813257857308599    -2.27e-04  4.05e-05  3.56e-03  8.61e-04     5.4
               *** Restarting incremental Fock matrix formation ***
   12    -1952.9814515620214479    -1.26e-04  7.98e-05  7.71e-03  2.76e-03     8.3
   13    -1952.9816211012707754    -1.70e-04  3.30e-04  3.78e-02  1.48e-03     6.6
   14    -1952.9818433791147072    -2.22e-04  4.11e-05  6.54e-03  1.31e-03     7.1
   15    -1952.9819468749733460    -1.03e-04  2.89e-05  1.59e-03  1.03e-03     6.1
   16    -1952.9819756320898705    -2.88e-05  6.03e-05  6.02e-03  5.80e-04     6.3
   17    -1952.9819961329617399    -2.05e-05  4.87e-05  5.40e-03  4.09e-04     6.4
   18    -1952.9820018933519350    -5.76e-06  8.31e-06  1.15e-03  3.64e-04     6.3
   19    -1952.9820062625854007    -4.37e-06  8.13e-06  1.18e-03  1.65e-04     5.5
   20    -1952.9820072737588816    -1.01e-06  7.23e-06  4.19e-04  1.63e-04     5.6
   21    -1952.9820084985826725    -1.22e-06  1.04e-05  6.29e-04  1.01e-04     5.7
   22    -1952.9820089548888973    -4.56e-07  2.47e-06  1.67e-04  4.61e-05     6.0
   23    -1952.9820091262577080    -1.71e-07  1.43e-06  1.34e-04  3.21e-05     5.1
   24    -1952.9820091747747028    -4.85e-08  5.41e-07  7.07e-05  8.58e-06     4.9
   25    -1952.9820091735814458     1.19e-09  5.14e-07  4.73e-05  7.31e-06     4.3
                 **** Energy Check signals convergence ****

               *****************************************************
               *                     SUCCESS                       *
               *           SCF CONVERGED AFTER  25 CYCLES          *
               *****************************************************

Recomputing exchange energy using gridx3       ... done (   10.278 sec)
Old exchange energy                            :    -20.913839406 Eh
New exchange energy                            :    -20.913849641 Eh
Exchange energy change after final integration :     -0.000010235 Eh
Total energy after final integration           :  -1952.982019408 Eh

SMD CDS free energy correction energy :                 3.69432     Kcal/mol
Total Energy after SMD CDS correction =             -1952.976132141 Eh
             **** ENERGY FILE WAS UPDATED (rf_mecn_opt_r2s_D_A.en.tmp) ****

----------------
TOTAL SCF ENERGY
----------------

Total Energy       :      -1952.97613214141461 Eh          -53143.18230 eV

Components:
Nuclear Repulsion  :       2860.97578425311940 Eh           77851.10896 eV
Electronic Energy  :      -4813.68188611018559 Eh         -130986.94337 eV
One Electron Energy:      -8464.58873214897358 Eh         -230333.16931 eV
Two Electron Energy:       3650.90684603878753 Eh           99346.22595 eV
CPCM Dielectric    :         -0.27590731651483 Eh              -7.50782 eV
SMD CDS (Gcds)     :          0.00588726697443 Eh               0.16020 eV

Virial components:
Potential Energy   :      -3898.73938962706598 Eh         -106090.09231 eV
Kinetic Energy     :       1945.76325748565114 Eh           52946.91001 eV
Virial Ratio       :          2.00370696415816

DFT components:
N(Alpha)           :      100.999990661242 electrons
N(Beta)            :       99.999979589833 electrons
N(Total)           :      200.999970251075 electrons
E(X)               :     -189.315575024242 Eh       
E(C)               :       -7.003209211359 Eh       
E(XC)              :     -196.318784235601 Eh       

CPCM Solvation Model Properties:
Surface-charge          :          1.98896431579056
Corrected charge        :          2.00000000000000
Outlying charge corr.   :          0.00000659921698 Eh               0.00018 eV
Free-energy (cav+disp)  :          0.00588726697443 Eh               0.16020 eV

---------------
SCF CONVERGENCE
---------------

  Last Energy change         ...   -1.1933e-09  Tolerance :   1.0000e-08
  Last MAX-Density change    ...    4.7289e-05  Tolerance :   1.0000e-07
  Last RMS-Density change    ...    5.1420e-07  Tolerance :   5.0000e-09
  Last DIIS Error            ...    8.6059e-04  Tolerance :   5.0000e-07
  Last Orbital Gradient      ...    7.3109e-06  Tolerance :   1.0000e-05
  Last Orbital Rotation      ...    1.7327e-04  Tolerance :   1.0000e-05


----------------------
UHF SPIN CONTAMINATION
----------------------

Warning: in a DFT calculation there is little theoretical justification to 
         calculate <S**2> as in Hartree-Fock theory. We will do it anyways
         but you should keep in mind that the values have only limited relevance

Expectation value of <S**2>     :     0.755176
Ideal value S*(S+1) for S=0.5   :     0.750000
Deviation                       :     0.005176

----------------
ORBITAL ENERGIES
----------------
                 SPIN UP ORBITALS
  NO   OCC          E(Eh)            E(eV) 
   0   1.0000     -24.721630      -672.7098 
   1   1.0000     -24.721163      -672.6970 
   2   1.0000     -24.719275      -672.6457 
   3   1.0000     -24.713924      -672.5001 
   4   1.0000     -24.711646      -672.4381 
   5   1.0000     -24.709712      -672.3854 
   6   1.0000     -24.706364      -672.2943 
   7   1.0000     -24.704529      -672.2444 
   8   1.0000     -24.701361      -672.1582 
   9   1.0000     -24.697774      -672.0606 
  10   1.0000     -24.693558      -671.9459 
  11   1.0000     -24.684232      -671.6921 
  12   1.0000     -24.676506      -671.4819 
  13   1.0000     -24.652510      -670.8289 
  14   1.0000     -24.650364      -670.7705 
  15   1.0000     -19.004761      -517.1458 
  16   1.0000     -19.002885      -517.0948 
  17   1.0000     -10.427659      -283.7510 
  18   1.0000     -10.364596      -282.0350 
  19   1.0000     -10.358290      -281.8634 
  20   1.0000     -10.351022      -281.6656 
  21   1.0000     -10.341594      -281.4091 
  22   1.0000     -10.324237      -280.9368 
  23   1.0000     -10.287272      -279.9309 
  24   1.0000     -10.187115      -277.2055 
  25   1.0000      -1.342895       -36.5420 
  26   1.0000      -1.308160       -35.5968 
  27   1.0000      -1.294218       -35.2175 
  28   1.0000      -1.286627       -35.0109 
  29   1.0000      -1.278583       -34.7920 
  30   1.0000      -1.262778       -34.3619 
  31   1.0000      -1.256153       -34.1817 
  32   1.0000      -1.252464       -34.0813 
  33   1.0000      -1.243456       -33.8361 
  34   1.0000      -1.236362       -33.6431 
  35   1.0000      -1.230718       -33.4895 
  36   1.0000      -1.224783       -33.3280 
  37   1.0000      -1.221799       -33.2468 
  38   1.0000      -1.206621       -32.8338 
  39   1.0000      -1.172261       -31.8988 
  40   1.0000      -0.900513       -24.5042 
  41   1.0000      -0.841084       -22.8871 
  42   1.0000      -0.819366       -22.2961 
  43   1.0000      -0.794384       -21.6163 
  44   1.0000      -0.762423       -20.7466 
  45   1.0000      -0.722755       -19.6672 
  46   1.0000      -0.683579       -18.6011 
  47   1.0000      -0.657117       -17.8811 
  48   1.0000      -0.631695       -17.1893 
  49   1.0000      -0.618557       -16.8318 
  50   1.0000      -0.615059       -16.7366 
  51   1.0000      -0.611898       -16.6506 
  52   1.0000      -0.594451       -16.1758 
  53   1.0000      -0.591767       -16.1028 
  54   1.0000      -0.586052       -15.9473 
  55   1.0000      -0.575734       -15.6665 
  56   1.0000      -0.571154       -15.5419 
  57   1.0000      -0.560993       -15.2654 
  58   1.0000      -0.560447       -15.2505 
  59   1.0000      -0.548612       -14.9285 
  60   1.0000      -0.539170       -14.6716 
  61   1.0000      -0.530057       -14.4236 
  62   1.0000      -0.512740       -13.9524 
  63   1.0000      -0.503820       -13.7096 
  64   1.0000      -0.485438       -13.2094 
  65   1.0000      -0.481233       -13.0950 
  66   1.0000      -0.476974       -12.9791 
  67   1.0000      -0.471597       -12.8328 
  68   1.0000      -0.467567       -12.7232 
  69   1.0000      -0.461197       -12.5498 
  70   1.0000      -0.455464       -12.3938 
  71   1.0000      -0.452164       -12.3040 
  72   1.0000      -0.446791       -12.1578 
  73   1.0000      -0.442805       -12.0493 
  74   1.0000      -0.440345       -11.9824 
  75   1.0000      -0.437344       -11.9007 
  76   1.0000      -0.432055       -11.7568 
  77   1.0000      -0.424479       -11.5507 
  78   1.0000      -0.423676       -11.5288 
  79   1.0000      -0.421156       -11.4602 
  80   1.0000      -0.415621       -11.3096 
  81   1.0000      -0.414934       -11.2909 
  82   1.0000      -0.413388       -11.2489 
  83   1.0000      -0.408958       -11.1283 
  84   1.0000      -0.407256       -11.0820 
  85   1.0000      -0.404613       -11.0101 
  86   1.0000      -0.397196       -10.8083 
  87   1.0000      -0.393964       -10.7203 
  88   1.0000      -0.386523       -10.5178 
  89   1.0000      -0.382139       -10.3985 
  90   1.0000      -0.368442       -10.0258 
  91   1.0000      -0.367449        -9.9988 
  92   1.0000      -0.347180        -9.4472 
  93   1.0000      -0.322671        -8.7803 
  94   1.0000      -0.317786        -8.6474 
  95   1.0000      -0.292667        -7.9639 
  96   1.0000      -0.287736        -7.8297 
  97   1.0000      -0.192331        -5.2336 
  98   1.0000      -0.176496        -4.8027 
  99   1.0000      -0.174149        -4.7388 
 100   1.0000      -0.018213        -0.4956 
 101   0.0000       0.001713         0.0466 
 102   0.0000       0.019421         0.5285 
 103   0.0000       0.053992         1.4692 
 104   0.0000       0.066132         1.7995 
 105   0.0000       0.102131         2.7791 
 106   0.0000       0.113177         3.0797 
 107   0.0000       0.119543         3.2529 
 108   0.0000       0.128625         3.5001 
 109   0.0000       0.142266         3.8713 
 110   0.0000       0.150198         4.0871 
 111   0.0000       0.154542         4.2053 

                 SPIN DOWN ORBITALS
  NO   OCC          E(Eh)            E(eV) 
   0   1.0000     -24.721475      -672.7055 
   1   1.0000     -24.721093      -672.6951 
   2   1.0000     -24.718941      -672.6366 
   3   1.0000     -24.713782      -672.4962 
   4   1.0000     -24.710915      -672.4182 
   5   1.0000     -24.709515      -672.3801 
   6   1.0000     -24.705514      -672.2712 
   7   1.0000     -24.704318      -672.2387 
   8   1.0000     -24.700651      -672.1389 
   9   1.0000     -24.697558      -672.0547 
  10   1.0000     -24.692977      -671.9301 
  11   1.0000     -24.684049      -671.6871 
  12   1.0000     -24.675987      -671.4677 
  13   1.0000     -24.652327      -670.8239 
  14   1.0000     -24.648845      -670.7292 
  15   1.0000     -19.001186      -517.0485 
  16   1.0000     -18.998805      -516.9838 
  17   1.0000     -10.427276      -283.7406 
  18   1.0000     -10.363845      -282.0145 
  19   1.0000     -10.357282      -281.8360 
  20   1.0000     -10.349966      -281.6369 
  21   1.0000     -10.340631      -281.3829 
  22   1.0000     -10.323333      -280.9122 
  23   1.0000     -10.286568      -279.9117 
  24   1.0000     -10.180547      -277.0268 
  25   1.0000      -1.342359       -36.5275 
  26   1.0000      -1.306806       -35.5600 
  27   1.0000      -1.293111       -35.1873 
  28   1.0000      -1.285430       -34.9783 
  29   1.0000      -1.277462       -34.7615 
  30   1.0000      -1.261928       -34.3388 
  31   1.0000      -1.255814       -34.1724 
  32   1.0000      -1.251878       -34.0653 
  33   1.0000      -1.242534       -33.8111 
  34   1.0000      -1.235402       -33.6170 
  35   1.0000      -1.229718       -33.4623 
  36   1.0000      -1.223434       -33.2913 
  37   1.0000      -1.220468       -33.2106 
  38   1.0000      -1.205843       -32.8127 
  39   1.0000      -1.170461       -31.8499 
  40   1.0000      -0.891893       -24.2697 
  41   1.0000      -0.834840       -22.7172 
  42   1.0000      -0.814623       -22.1670 
  43   1.0000      -0.789767       -21.4907 
  44   1.0000      -0.758264       -20.6334 
  45   1.0000      -0.719409       -19.5761 
  46   1.0000      -0.681465       -18.5436 
  47   1.0000      -0.655006       -17.8236 
  48   1.0000      -0.628832       -17.1114 
  49   1.0000      -0.617240       -16.7960 
  50   1.0000      -0.613399       -16.6914 
  51   1.0000      -0.611296       -16.6342 
  52   1.0000      -0.592400       -16.1200 
  53   1.0000      -0.590275       -16.0622 
  54   1.0000      -0.583595       -15.8804 
  55   1.0000      -0.574752       -15.6398 
  56   1.0000      -0.568483       -15.4692 
  57   1.0000      -0.559532       -15.2256 
  58   1.0000      -0.557994       -15.1838 
  59   1.0000      -0.547300       -14.8928 
  60   1.0000      -0.537526       -14.6268 
  61   1.0000      -0.527031       -14.3413 
  62   1.0000      -0.505419       -13.7531 
  63   1.0000      -0.501384       -13.6434 
  64   1.0000      -0.484741       -13.1905 
  65   1.0000      -0.480814       -13.0836 
  66   1.0000      -0.476588       -12.9686 
  67   1.0000      -0.471049       -12.8179 
  68   1.0000      -0.466851       -12.7037 
  69   1.0000      -0.460408       -12.5283 
  70   1.0000      -0.454951       -12.3798 
  71   1.0000      -0.451665       -12.2904 
  72   1.0000      -0.446248       -12.1430 
  73   1.0000      -0.442255       -12.0344 
  74   1.0000      -0.439282       -11.9535 
  75   1.0000      -0.436976       -11.8907 
  76   1.0000      -0.430875       -11.7247 
  77   1.0000      -0.423452       -11.5227 
  78   1.0000      -0.423132       -11.5140 
  79   1.0000      -0.420589       -11.4448 
  80   1.0000      -0.415142       -11.2966 
  81   1.0000      -0.413812       -11.2604 
  82   1.0000      -0.412438       -11.2230 
  83   1.0000      -0.406939       -11.0734 
  84   1.0000      -0.405641       -11.0380 
  85   1.0000      -0.399833       -10.8800 
  86   1.0000      -0.394988       -10.7482 
  87   1.0000      -0.392720       -10.6864 
  88   1.0000      -0.384785       -10.4705 
  89   1.0000      -0.380090       -10.3428 
  90   1.0000      -0.365944        -9.9578 
  91   1.0000      -0.365610        -9.9488 
  92   1.0000      -0.344382        -9.3711 
  93   1.0000      -0.320103        -8.7104 
  94   1.0000      -0.314595        -8.5606 
  95   1.0000      -0.287561        -7.8249 
  96   1.0000      -0.263400        -7.1675 
  97   1.0000      -0.173923        -4.7327 
  98   1.0000      -0.173331        -4.7166 
  99   1.0000      -0.169897        -4.6231 
 100   0.0000       0.012316         0.3351 
 101   0.0000       0.021253         0.5783 
 102   0.0000       0.041816         1.1379 
 103   0.0000       0.064362         1.7514 
 104   0.0000       0.075077         2.0429 
 105   0.0000       0.108864         2.9623 
 106   0.0000       0.117656         3.2016 
 107   0.0000       0.123346         3.3564 
 108   0.0000       0.134715         3.6658 
 109   0.0000       0.145839         3.9685 
 110   0.0000       0.154334         4.1996 
*Only the first 10 virtual orbitals were printed.

                    ********************************
                    * MULLIKEN POPULATION ANALYSIS *
                    ********************************

--------------------------------------------
MULLIKEN ATOMIC CHARGES AND SPIN POPULATIONS
--------------------------------------------
   0 C :    0.077460    0.309170
   1 O :   -0.697168    0.095435
   2 O :   -0.698011    0.085275
   3 C :    0.288435    0.106317
   4 C :    0.309617    0.056694
   5 C :    0.291261    0.077125
   6 C :    0.278194    0.084964
   7 C :    0.263465    0.080502
   8 C :    0.305046    0.056096
   9 C :    0.458298    0.023386
  10 F :   -0.230406   -0.000827
  11 F :   -0.249248    0.009377
  12 F :   -0.209320    0.000158
  13 F :   -0.202720    0.002657
  14 F :   -0.195336   -0.000128
  15 F :   -0.192156    0.000972
  16 F :   -0.191057    0.000078
  17 F :   -0.186286    0.002324
  18 F :   -0.183268    0.004048
  19 F :   -0.186969    0.000139
  20 F :   -0.177546    0.003347
  21 F :   -0.178302    0.000187
  22 F :   -0.165278    0.000266
  23 F :   -0.164577    0.002498
  24 F :   -0.164125   -0.000059
Sum of atomic charges         :   -2.0000000
Sum of atomic spin populations:    1.0000000

-----------------------------------------------------
MULLIKEN REDUCED ORBITAL CHARGES AND SPIN POPULATIONS
-----------------------------------------------------
CHARGE
  0 C s       :     3.111983  s :     3.111983
      pz      :     1.017934  p :     2.636303
      px      :     0.916815
      py      :     0.701555
      dz2     :     0.015395  d :     0.157726
      dxz     :     0.011976
      dyz     :     0.045221
      dx2y2   :     0.038413
      dxy     :     0.046721
      f0      :     0.001914  f :     0.016528
      f+1     :     0.001006
      f-1     :     0.002042
      f+2     :     0.002499
      f-2     :     0.001528
      f+3     :     0.003728
      f-3     :     0.003811

  1 O s       :     3.848135  s :     3.848135
      pz      :     1.699099  p :     4.825207
      px      :     1.667918
      py      :     1.458190
      dz2     :     0.003152  d :     0.022597
      dxz     :     0.001606
      dyz     :     0.005122
      dx2y2   :     0.005192
      dxy     :     0.007526
      f0      :     0.000118  f :     0.001230
      f+1     :     0.000070
      f-1     :     0.000176
      f+2     :     0.000110
      f-2     :     0.000182
      f+3     :     0.000347
      f-3     :     0.000227

  2 O s       :     3.843790  s :     3.843790
      pz      :     1.708803  p :     4.829932
      px      :     1.773726
      py      :     1.347402
      dz2     :     0.003128  d :     0.023034
      dxz     :     0.000283
      dyz     :     0.005949
      dx2y2   :     0.008569
      dxy     :     0.005104
      f0      :     0.000118  f :     0.001254
      f+1     :     0.000021
      f-1     :     0.000232
      f+2     :     0.000211
      f-2     :     0.000030
      f+3     :     0.000275
      f-3     :     0.000369

  3 C s       :     3.096412  s :     3.096412
      pz      :     0.758691  p :     2.350744
      px      :     0.963025
      py      :     0.629027
      dz2     :     0.054721  d :     0.240836
      dxz     :     0.038146
      dyz     :     0.053782
      dx2y2   :     0.048564
      dxy     :     0.045624
      f0      :     0.004954  f :     0.023573
      f+1     :     0.003509
      f-1     :     0.003711
      f+2     :     0.003090
      f-2     :     0.001865
      f+3     :     0.003422
      f-3     :     0.003022

  4 C s       :     3.101300  s :     3.101300
      pz      :     0.640966  p :     2.294837
      px      :     0.937368
      py      :     0.716502
      dz2     :     0.060975  d :     0.267898
      dxz     :     0.052465
      dyz     :     0.061737
      dx2y2   :     0.040432
      dxy     :     0.052290
      f0      :     0.003550  f :     0.026348
      f+1     :     0.004704
      f-1     :     0.007591
      f+2     :     0.002035
      f-2     :     0.002500
      f+3     :     0.003523
      f-3     :     0.002445

  5 C s       :     3.134439  s :     3.134439
      pz      :     0.591519  p :     2.265277
      px      :     0.917098
      py      :     0.756659
      dz2     :     0.073356  d :     0.282414
      dxz     :     0.056321
      dyz     :     0.055813
      dx2y2   :     0.044123
      dxy     :     0.052800
      f0      :     0.004777  f :     0.026610
      f+1     :     0.004092
      f-1     :     0.005854
      f+2     :     0.002998
      f-2     :     0.004201
      f+3     :     0.002552
      f-3     :     0.002136

  6 C s       :     3.128363  s :     3.128363
      pz      :     0.574790  p :     2.280762
      px      :     0.924830
      py      :     0.781142
      dz2     :     0.078203  d :     0.286049
      dxz     :     0.057103
      dyz     :     0.052238
      dx2y2   :     0.045413
      dxy     :     0.053091
      f0      :     0.005834  f :     0.026631
      f+1     :     0.003640
      f-1     :     0.004219
      f+2     :     0.003882
      f-2     :     0.005044
      f+3     :     0.002100
      f-3     :     0.001912

  7 C s       :     3.135201  s :     3.135201
      pz      :     0.578470  p :     2.287120
      px      :     0.938670
      py      :     0.769980
      dz2     :     0.071539  d :     0.287505
      dxz     :     0.057663
      dyz     :     0.058422
      dx2y2   :     0.045924
      dxy     :     0.053956
      f0      :     0.004495  f :     0.026710
      f+1     :     0.004109
      f-1     :     0.006276
      f+2     :     0.003009
      f-2     :     0.004125
      f+3     :     0.002613
      f-3     :     0.002081

  8 C s       :     3.101729  s :     3.101729
      pz      :     0.608630  p :     2.285767
      px      :     0.942623
      py      :     0.734515
      dz2     :     0.056621  d :     0.280558
      dxz     :     0.057108
      dyz     :     0.068702
      dx2y2   :     0.042915
      dxy     :     0.055211
      f0      :     0.003440  f :     0.026900
      f+1     :     0.004790
      f-1     :     0.007963
      f+2     :     0.002268
      f-2     :     0.002311
      f+3     :     0.003758
      f-3     :     0.002370

  9 C s       :     3.032354  s :     3.032354
      pz      :     0.643436  p :     2.124007
      px      :     0.805592
      py      :     0.674979
      dz2     :     0.065139  d :     0.346187
      dxz     :     0.066895
      dyz     :     0.082968
      dx2y2   :     0.064705
      dxy     :     0.066481
      f0      :     0.004490  f :     0.039153
      f+1     :     0.007786
      f-1     :     0.008675
      f+2     :     0.004346
      f-2     :     0.002996
      f+3     :     0.007404
      f-3     :     0.003457

 10 F s       :     3.914709  s :     3.914709
      pz      :     1.904935  p :     5.300539
      px      :     1.892915
      py      :     1.502689
      dz2     :     0.002044  d :     0.014553
      dxz     :     0.000336
      dyz     :     0.002797
      dx2y2   :     0.005484
      dxy     :     0.003892
      f0      :     0.000046  f :     0.000605
      f+1     :     0.000015
      f-1     :     0.000117
      f+2     :     0.000071
      f-2     :     0.000017
      f+3     :     0.000163
      f-3     :     0.000176

 11 F s       :     3.911916  s :     3.911916
      pz      :     1.534322  p :     5.323147
      px      :     1.909596
      py      :     1.879230
      dz2     :     0.005890  d :     0.013619
      dxz     :     0.003435
      dyz     :     0.003309
      dx2y2   :     0.000516
      dxy     :     0.000469
      f0      :     0.000194  f :     0.000567
      f+1     :     0.000134
      f-1     :     0.000157
      f+2     :     0.000038
      f-2     :     0.000038
      f+3     :     0.000003
      f-3     :     0.000003

 12 F s       :     3.921391  s :     3.921391
      pz      :     1.819523  p :     5.271234
      px      :     1.909862
      py      :     1.541848
      dz2     :     0.002018  d :     0.016018
      dxz     :     0.000800
      dyz     :     0.005166
      dx2y2   :     0.004754
      dxy     :     0.003281
      f0      :     0.000074  f :     0.000677
      f+1     :     0.000004
      f-1     :     0.000119
      f+2     :     0.000179
      f-2     :     0.000063
      f+3     :     0.000108
      f-3     :     0.000131

 13 F s       :     3.917677  s :     3.917677
      pz      :     1.474455  p :     5.268548
      px      :     1.909753
      py      :     1.884341
      dz2     :     0.008048  d :     0.015823
      dxz     :     0.003657
      dyz     :     0.003328
      dx2y2   :     0.000404
      dxy     :     0.000386
      f0      :     0.000326  f :     0.000672
      f+1     :     0.000155
      f-1     :     0.000156
      f+2     :     0.000013
      f-2     :     0.000018
      f+3     :     0.000001
      f-3     :     0.000002

 14 F s       :     3.923448  s :     3.923448
      pz      :     1.715914  p :     5.254936
      px      :     1.904761
      py      :     1.634262
      dz2     :     0.002643  d :     0.016271
      dxz     :     0.001607
      dyz     :     0.006359
      dx2y2   :     0.003118
      dxy     :     0.002544
      f0      :     0.000076  f :     0.000682
      f+1     :     0.000014
      f-1     :     0.000181
      f+2     :     0.000185
      f-2     :     0.000103
      f+3     :     0.000059
      f-3     :     0.000063

 15 F s       :     3.917668  s :     3.917668
      pz      :     1.520259  p :     5.257712
      px      :     1.908012
      py      :     1.829440
      dz2     :     0.006552  d :     0.016098
      dxz     :     0.003252
      dyz     :     0.004751
      dx2y2   :     0.000724
      dxy     :     0.000818
      f0      :     0.000223  f :     0.000678
      f+1     :     0.000108
      f-1     :     0.000226
      f+2     :     0.000052
      f-2     :     0.000059
      f+3     :     0.000005
      f-3     :     0.000005

 16 F s       :     3.925858  s :     3.925858
[...]
      f+3     :    -0.000001
      f-3     :     0.000012

 17 F s       :     0.003403  s :     0.003403
      pz      :     0.009541  p :     0.007173
      px      :    -0.000203
      py      :    -0.002165
      dz2     :     0.000556  d :     0.001192
      dxz     :    -0.000079
      dyz     :     0.000060
      dx2y2   :     0.000686
      dxy     :    -0.000030
      f0      :     0.000010  f :     0.000042
      f+1     :    -0.000001
      f-1     :     0.000022
      f+2     :     0.000005
      f-2     :    -0.000004
      f+3     :    -0.000000
      f-3     :     0.000010

 18 F s       :     0.003619  s :     0.003619
      pz      :     0.011271  p :     0.008884
      px      :    -0.000147
      py      :    -0.002240
      dz2     :     0.000661  d :     0.001347
      dxz     :    -0.000078
      dyz     :     0.000078
      dx2y2   :     0.000744
      dxy     :    -0.000057
      f0      :     0.000011  f :     0.000047
      f+1     :    -0.000001
      f-1     :     0.000025
      f+2     :     0.000006
      f-2     :    -0.000004
      f+3     :    -0.000001
      f-3     :     0.000012

 19 F s       :     0.003027  s :     0.003027
      pz      :     0.010151  p :     0.008408
      px      :    -0.000240
      py      :    -0.001503
      dz2     :     0.000730  d :     0.001423
      dxz     :    -0.000083
      dyz     :     0.000002
      dx2y2   :     0.000818
      dxy     :    -0.000045
      f0      :     0.000017  f :     0.000051
      f+1     :    -0.000002
      f-1     :     0.000017
      f+2     :     0.000011
      f-2     :    -0.000004
      f+3     :    -0.000001
      f-3     :     0.000012

 20 F s       :     0.002377  s :     0.002377
      pz      :     0.006940  p :     0.005291
      px      :    -0.000104
      py      :    -0.001544
      dz2     :     0.000426  d :     0.000931
      dxz     :    -0.000019
      dyz     :     0.000073
      dx2y2   :     0.000464
      dxy     :    -0.000014
      f0      :     0.000007  f :     0.000040
      f+1     :     0.000001
      f-1     :     0.000019
      f+2     :     0.000003
      f-2     :     0.000001
      f+3     :     0.000001
      f-3     :     0.000009

 21 F s       :     0.002203  s :     0.002203
      pz      :     0.006622  p :     0.005079
      px      :    -0.000170
      py      :    -0.001373
      dz2     :     0.000478  d :     0.000947
      dxz     :    -0.000027
      dyz     :     0.000028
      dx2y2   :     0.000484
      dxy     :    -0.000015
      f0      :     0.000010  f :     0.000041
      f+1     :     0.000001
      f-1     :     0.000016
      f+2     :     0.000005
      f-2     :     0.000000
      f+3     :     0.000001
      f-3     :     0.000008

 22 F s       :     0.000073  s :     0.000073
      pz      :     0.000252  p :     0.000736
      px      :     0.000518
      py      :    -0.000034
      dz2     :     0.000143  d :     0.000366
      dxz     :    -0.000061
      dyz     :     0.000027
      dx2y2   :     0.000287
      dxy     :    -0.000030
      f0      :     0.000006  f :     0.000016
      f+1     :    -0.000001
      f-1     :     0.000004
      f+2     :     0.000005
      f-2     :    -0.000002
      f+3     :     0.000002
      f-3     :     0.000003

 23 F s       :     0.003466  s :     0.003466
      pz      :     0.000009  p :     0.020382
      px      :     0.020334
      py      :     0.000039
      dz2     :     0.000278  d :     0.001889
      dxz     :     0.000018
      dyz     :     0.000005
      dx2y2   :     0.001254
      dxy     :     0.000333
      f0      :     0.000000  f :     0.000081
      f+1     :     0.000017
      f-1     :     0.000001
      f+2     :     0.000000
      f-2     :     0.000001
      f+3     :     0.000011
      f-3     :     0.000051

 24 F s       :     0.000060  s :     0.000060
      pz      :     0.000139  p :     0.000688
      px      :     0.000416
      py      :     0.000134
      dz2     :     0.000143  d :     0.000370
      dxz     :    -0.000066
      dyz     :     0.000037
      dx2y2   :     0.000281
      dxy     :    -0.000025
      f0      :     0.000007  f :     0.000016
      f+1     :    -0.000001
      f-1     :     0.000002
      f+2     :     0.000006
      f-2     :    -0.000002
      f+3     :     0.000002
      f-3     :     0.000002



                      *****************************
                      * MAYER POPULATION ANALYSIS *
                      *****************************

  NA   - Mulliken gross atomic population
  ZA   - Total nuclear charge
  QA   - Mulliken gross atomic charge
  VA   - Mayer's total valence
  BVA  - Mayer's bonded valence
  FA   - Mayer's free valence

  ATOM       NA         ZA         QA         VA         BVA        FA
  0 C      5.7885     6.0000     0.2115     4.5901     4.5899     0.0002
  1 O      8.5308     8.0000    -0.5308     1.9298     1.9297     0.0001
  2 O      8.5381     8.0000    -0.5381     1.9227     1.9227     0.0000
  3 C      5.6472     6.0000     0.3528     3.8866     3.8856     0.0010
  4 C      5.7391     6.0000     0.2609     4.0902     4.0834     0.0067
  5 C      5.7184     6.0000     0.2816     4.0927     4.0610     0.0317
  6 C      5.7571     6.0000     0.2429     4.0659     3.9785     0.0874
  7 C      5.7900     6.0000     0.2100     4.0755     3.9813     0.0941
  8 C      5.7163     6.0000     0.2837     4.1496     4.1141     0.0355
  9 C      5.5607     6.0000     0.4393     4.4770     4.4680     0.0089
 10 F      9.2225     9.0000    -0.2225     1.0515     1.0515     0.0000
 11 F      9.2266     9.0000    -0.2266     1.0443     1.0443     0.0000
 12 F      9.2067     9.0000    -0.2067     1.0838     1.0838     0.0000
 13 F      9.2104     9.0000    -0.2104     1.0829     1.0829     0.0000
 14 F      9.2160     9.0000    -0.2160     1.0594     1.0594     0.0001
 15 F      9.2170     9.0000    -0.2170     1.0632     1.0632     0.0000
 16 F      9.2290     9.0000    -0.2290     1.0331     1.0330     0.0002
 17 F      9.2340     9.0000    -0.2340     1.0250     1.0248     0.0002
 18 F      9.2364     9.0000    -0.2364     1.0221     1.0219     0.0002
 19 F      9.2322     9.0000    -0.2322     1.0296     1.0293     0.0002
 20 F      9.2135     9.0000    -0.2135     1.0613     1.0612     0.0001
 21 F      9.2128     9.0000    -0.2128     1.0632     1.0631     0.0001
 22 F      9.1815     9.0000    -0.1815     1.1172     1.1172     0.0000
 23 F      9.1939     9.0000    -0.1939     1.0848     1.0844     0.0004
 24 F      9.1815     9.0000    -0.1815     1.1170     1.1170     0.0000

  Mayer bond orders larger than 0.100000
B(  0-C ,  1-O ) :   1.8401 B(  0-C ,  2-O ) :   1.8286 B(  0-C ,  3-C ) :   0.8335 
B(  3-C ,  4-C ) :   0.9118 B(  3-C , 10-F ) :   1.0324 B(  3-C , 11-F ) :   1.0211 
B(  4-C ,  5-C ) :   0.8818 B(  4-C , 12-F ) :   1.0545 B(  4-C , 13-F ) :   1.0439 
B(  5-C ,  6-C ) :   0.8940 B(  5-C , 14-F ) :   1.0249 B(  5-C , 15-F ) :   1.0253 
B(  6-C ,  7-C ) :   0.8986 B(  6-C , 16-F ) :   0.9968 B(  6-C , 17-F ) :   0.9844 
B(  7-C ,  8-C ) :   0.9212 B(  7-C , 18-F ) :   0.9826 B(  7-C , 19-F ) :   0.9894 
B(  8-C ,  9-C ) :   0.9478 B(  8-C , 20-F ) :   1.0215 B(  8-C , 21-F ) :   1.0219 
B(  9-C , 22-F ) :   1.1214 B(  9-C , 23-F ) :   1.0694 B(  9-C , 24-F ) :   1.1208 


-------
TIMINGS
-------

Total SCF time: 0 days 0 hours 0 min 49 sec 

Total time                  ....      49.011 sec
Sum of individual times     ....      47.744 sec  ( 97.4%)

SCF preparation             ....       1.237 sec  (  2.5%)
Fock matrix formation       ....      41.140 sec  ( 83.9%)
  Startup                   ....       0.230 sec  (  0.6% of F)
  Split-RI-J                ....       2.604 sec  (  6.3% of F)
  Chain of spheres X        ....      25.908 sec  ( 63.0% of F)
  XC integration            ....       9.623 sec  ( 23.4% of F)
    Basis function eval.    ....       0.583 sec  (  6.1% of XC)
    Density eval.           ....       2.700 sec  ( 28.1% of XC)
    XC-Functional eval.     ....       0.205 sec  (  2.1% of XC)
    XC-Potential eval.      ....       2.426 sec  ( 25.2% of XC)
  CPCM terms                ....       2.190 sec  (  5.3% of F)
Diagonalization             ....       0.000 sec  (  0.0%)
Density matrix formation    ....       0.570 sec  (  1.2%)
Total Energy calculation    ....       0.358 sec  (  0.7%)
Population analysis         ....       0.316 sec  (  0.6%)
Orbital Transformation      ....       0.429 sec  (  0.9%)
Orbital Orthonormalization  ....       0.000 sec  (  0.0%)
DIIS solution               ....       0.531 sec  (  1.1%)
SOSCF solution              ....       3.163 sec  (  6.5%)
Finished LeanSCF after  49.2 sec

Maximum memory used throughout the entire LEANSCF-calculation: 109.5 MB


-------------------------------------------------------------------------------
                          DFT DISPERSION CORRECTION                            
                                                                               
                              DFTD3 V3.1  Rev 1                                
                          USING Becke-Johnson damping                          
-------------------------------------------------------------------------------
The R2SCANh functional is recognized
Active option DFTDOPT                   ...         4   

molecular C6(AA) [au] = 6620.552641 


            DFT-D V3
 parameters
 s6 scaling factor         :     1.0000 
 a1 scaling factor         :     0.4709 
 s8 scaling factor         :     1.1236 
 a2 scaling factor         :     5.9157 
 ad hoc parameters k1-k3   :    16.0000     1.3333    -4.0000 

 Edisp/kcal,au: -5.128162063859  -0.008172245566 
 E6   /kcal   :  -3.746589336 
 E8   /kcal   :  -1.381572728 
 % E8         :  26.940894428 

-------------------------   ----------------
Dispersion correction           -0.008172246
-------------------------   ----------------


-------------------------   --------------------
FINAL SINGLE POINT ENERGY     -1953.055394898641
-------------------------   --------------------

                                *** OPTIMIZATION RUN DONE ***



           ************************************************************
           *        Program running with 20 parallel MPI-processes    *
           *              working on a common directory               *
           ************************************************************

------------------------------------------------------------------------------
                              ORCA PROPERTY CALCULATIONS
------------------------------------------------------------------------------

GBWName                                 ... rf_mecn_opt_r2s_D_A.gbw
Number of atoms                         ...     25
Number of basis functions               ...    775
Max core memory                         ...   8000 MB

Electric properties:
Dipole moment                           ... YES
Quadrupole moment                       ...  NO
Static polarizability (Dipole/Dipole)   ...  NO
Static polarizability (Dipole/Quad.)    ...  NO
Static polarizability (Quad./Quad.)     ...  NO
Static polarizability (Velocity)        ...  NO

Atomic electric properties:
Dipole moment                           ...  NO
Quadrupole moment                       ...  NO
Static polarizability                   ...  NO

Choice of electric origin               ... Center of mass
Position of electric origin             ...    -0.114076    -0.035820    -0.003874

General magnetic properties:
Magnetizability                         ...  NO

EPR properties:
g-Tensor (aka g-matrix)                 ...  NO
Zero-Field splitting spin-orbit         ...  NO
Zero-field splitting spin-spin          ...  NO
Hyperfine couplings                     ...  NO (   0 nuclei)
Quadrupole couplings                    ...  NO (   0 nuclei)
Contact density                         ...  NO (   0 nuclei)

NMR properties:
Chemical shifts                         ...  NO (   0 nuclei)
Spin-rotation constants                 ...  NO (   0 nuclei)
Spin-spin couplings                     ...  NO (   0 nuclei,    0 pairs)

Choice of magnetic origin               ... GIAO
Position of magnetic origin             ...     0.000000     0.000000     0.000000

Properties with geometric perturbations:
SCF Hessian                             ...  NO
IR spectrum                             ...  NO
VCD spectrum                            ...  NO
X-ray spectroscopy properties:
SCF XES/XAS/RIXS spectra                ...  NO


-------------
DIPOLE MOMENT
-------------

Method             : SCF
Type of density    : Electron Density
Multiplicity       :   2
Irrep              :   0
Energy             : -1953.0472226530757780 Eh
Relativity type    : 
Basis              : AO
                                X                 Y                 Z
Electronic contribution:    -17.610944060      -1.602287359       1.367454738
Nuclear contribution   :     10.147507406       0.838690536      -0.770063719
                        -----------------------------------------
Total Dipole Moment    :     -7.463436654      -0.763596823       0.597391019
                        -----------------------------------------
Magnitude (a.u.)       :      7.526143954
Magnitude (Debye)      :     19.129937651



--------------------
Rotational spectrum 
--------------------
 
Rotational constants in cm-1:             0.021941             0.003421             0.003394 
Rotational constants in MHz :           657.767933           102.560136           101.740170 

Dipole components along the rotational axes: 
x,y,z [a.u.] :    -7.457193    -0.810445     0.613423 
x,y,z [Debye]:   -18.954679    -2.059988     1.559198 

 

Dipole moment calculation done in   0.0 sec 

Maximum memory used throughout the entire PROP-calculation: 57.5 MB

--------------------------------
SUGGESTED CITATIONS FOR THIS RUN
--------------------------------

Below you find a list of papers that are relevant to this ORCA run
We neither can nor want to force you to cite these papers, but we appreciate if you do
You receive ORCA, which is the product of decades of hard work by many enthusiastic individuals, for free
The only thing we kindly ask in return is that you cite our papers,
We deeply appreciate it, if you show your appreciation for ORCA by not just citing the generic ORCA reference.

Please note that relegating all ORCA citations to the supporting information does *not* help us.
SI sections are not indexed - citations you put there will not count into any citation statistics
But we need these citations in order to attract the funding resources that allow us to do what we are doing

Therefore, if you are a happy ORCA user, please consider citing a few of the papers listed below in the main body of your paper

In addition to the list printed below, the program has created the file rf_mecn_opt_r2s_D_A.bibtex that contains the list in bibtex format
You can import this file easily into all common literature databanks and citation aid programs


List of essential papers. We consider these as the minimum necessary citations

  1. Neese,F.
     Software update: the ORCA program system, version 5.0
     WIRES Comput. Molec. Sci., 2022 12(1)e1606
     doi.org/10.1002/wcms.1606

List of papers to cite with high priority. The work reported in these papers was absolutely
necessary for this run to complete.
Our perspective: the developers of density functionals and basis sets usually get cited in chemistry papers
Good! But without the algorithms to do something with them, the functionals or basis sets would not do anything.
Hence, in our opinion, the algorithm design and method developments papers are equally worthy of getting cited

  1. Neese,F.
     An improvement of the resolution of the identity approximation for the formation of the Coulomb matrix
     J. Comp. Chem., 2003 24(14)1740-1747
     doi.org/10.1002/jcc.10318
  2. Neese,F.; Wennmohs,F.; Hansen,A.; Becker,U.
     Efficient, approximate and parallel Hartree-Fock and hybrid DFT calculations. A 'chain-of-spheres' algorithm for the Hartree-Fock exchange
     Chem. Phys., 2009 356(1-3)98-109
     doi.org/10.1016/j.chemphys.2008.10.036
  3. Garcia-Rates,M.; Neese,F.
     Effect of the Solute Cavity on the Solvation Energy and its Derivatives within the Framework of the Gaussian Charge Scheme
     J. Comput. Chem., 2020 41 922-939
     doi.org/10.1002/jcc.26139
  4. Helmich-Paris,B.; de Souza,B.; Neese,F.; Izsák,R.
     An improved chain of spheres for exchange algorithm
     J. Chem. Phys., 2021 155 104109
     doi.org/doi: 10.1063/5.0058766.
  5. Neese,F.
     The SHARK Integral Generation and Digestion System
     J. Comp. Chem., 2022  1-16
     doi.org/10.1002/jcc.26942
  6. Lehtola,S.; Steigemann,C.; Oliveira,M.; Marques,M.
     Recent developments in Libxc - A comprehensive library of functionals for density functional theory
     Software X, 2018 7 
     doi.org/10.1016/j.softx.2017.11.002
  7. Grimme,S.; Antony,J.; Ehrlich,S.; Krieg,H.
     A consistent and accurate ab initio parametrization of density functional dispersion correction (DFT-D) for the 94 elements H-Pu
     J. Chem. Phys., 2010 132 154104
     doi.org/10.1063/1.3382344
  8. Grimme,S.; Ehrlich,S.; Goerigk,L.
     Effect of the damping function in dispersion corrected density functional theory
     J. Comput. Chem., 2011 32(7)1456-1465
     doi.org/10.1002/jcc.21759
  9. Bursch,M.; Neugebauer,H.; Ehlert,S.; Grimme,S.
     Dispersion corrected r2SCAN based global hybrid functionals: r2SCANh, r2SCAN0, and r2SCAN50
     J. Phys. Chem., 2022 156(13)134105
     doi.org/10.1063/5.0086040

List of suggested additional citations. These are papers that are important in the 'surrounding' of 
of this run, or papers that preceded the highly important papers. If you like your results we are grateful for a citation.

  1. Izsak,R.; Neese,F.
     An overlap fitted chain of spheres exchange method
     J. Chem. Phys., 2011 135 144105
     doi.org/10.1063/1.3646921
  2. Izsak,R.; Hansen,A.; Neese,F.
     The resolution of identity and chain of spheres approximations for the LPNO-CCSD singles Fock term
     Molec. Phys., 2012 110 2413-2417
     doi.org/10.1080/00268976.2012.687466
  3. Neese,F.
     The ORCA program system
     WIRES Comput. Molec. Sci., 2012 2(1)73-78
     doi.org/10.1002/wcms.81
  4. Izsak,R.; Neese,F.; Klopper,W.
     Robust fitting techniques in the chain of spheres approximation to the Fock exchange: The role of the complementary space
     J. Chem. Phys., 2013 139 
     doi.org/10.1063/1.4819264
  5. Neese,F.
     Software update: the ORCA program system, version 4.0
     WIRES Comput. Molec. Sci., 2018 8(1)1-6
     doi.org/10.1002/wcms.1327
  6. Neese,F.; Wennmohs,F.; Becker,U.; Riplinger,C.
     The ORCA quantum chemistry program package
     J. Chem. Phys., 2020 152 Art. No. L224108
     doi.org/10.1063/5.0004608
  7. Wittmann,L.; Neugebauer,H.; Grimme,S.; Bursch,M.
     Dispersion-corrected r2SCAN based double-hybrid functionals
     J. Chem. Phys., 2023 159(22)224103
     doi.org/10.1063/5.0174988

List of optional additional citations

  1. Neese,F.
     Approximate second-order SCF convergence for spin unrestricted wavefunctions
     Chem. Phys. Lett., 2000 325(1-3)93-98
     doi.org/10.1016/s0009-2614(00)00662-x

Timings for individual modules:

Sum of individual times          ...     1639.443 sec (=  27.324 min)
Startup calculation              ...       61.163 sec (=   1.019 min)   3.7 %
SCF iterations                   ...     1258.357 sec (=  20.973 min)  76.8 %
Property calculations            ...        0.803 sec (=   0.013 min)   0.0 %
SCF Gradient evaluation          ...      318.879 sec (=   5.315 min)  19.5 %
Geometry relaxation              ...        0.241 sec (=   0.004 min)   0.0 %
                             ****ORCA TERMINATED NORMALLY****
TOTAL RUN TIME: 0 days 0 hours 27 minutes 29 seconds 296 msec
