
                                 *****************
                                 * O   R   C   A *
                                 *****************

                                            #,                                       
                                            ###                                      
                                            ####                                     
                                            #####                                    
                                            ######                                   
                                           ########,                                 
                                     ,,################,,,,,                         
                               ,,#################################,,                 
                          ,,##########################################,,             
                       ,#########################################, ''#####,          
                    ,#############################################,,   '####,        
                  ,##################################################,,,,####,       
                ,###########''''           ''''###############################       
              ,#####''   ,,,,##########,,,,          '''####'''          '####       
            ,##' ,,,,###########################,,,                        '##       
           ' ,,###''''                  '''############,,,                           
         ,,##''                                '''############,,,,        ,,,,,,###''
      ,#''                                            '''#######################'''  
     '                                                          ''''####''''         
             ,#######,   #######,   ,#######,      ##                                
            ,#'     '#,  ##    ##  ,#'     '#,    #''#        ,####,   ,####,        
            ##       ##  ##   ,#'  ##            #'  '#       #'       #'  '#        
            ##       ##  #######   ##           ,######,      #####,   #    #        
            '#,     ,#'  ##    ##  '#,     ,#' ,#      #,     #,   #   #,  ,#        
             '#######'   ##     ##  '#######'  #'      '#     '####' # '####'        



                #########################################################
                #                        -***-                          #
                #          Department of theory and spectroscopy        #
                #                                                       #
                #                      Frank Neese                      #
                #                                                       #
                #     Directorship, Architecture, Infrastructure        #
                #                    SHARK, DRIVERS                     #
                #        Core code/Algorithms in most modules           #
                #                                                       #
                #        Max Planck Institute fuer Kohlenforschung      #
                #                Kaiser Wilhelm Platz 1                 #
                #                 D-45470 Muelheim/Ruhr                 #
                #                      Germany                          #
                #                                                       #
                #                  All rights reserved                  #
                #                        -***-                          #
                #########################################################


                         Program Version 6.0.1  -  RELEASE   -


 With contributions from (in alphabetic order):
[Max-Planck-Institut fuer Kohlenforschung]                               
  Daniel Aravena         : Magnetic Suceptibility                        
  Michael Atanasov       : Ab Initio Ligand Field Theory (pilot matlab implementation)
  Alexander A. Auer      : GIAO ZORA, VPT2 properties, NMR spectrum      
  Ute Becker             : All parallelization in ORCA, NUMFREQ, NUMCALC 
  Giovanni Bistoni       : ED, misc. LED, open-shell LED, HFLD           
  Martin Brehm           : Molecular dynamics                            
  Dmytro Bykov           : pre 5.0 version of the SCF Hessian            
  Marcos Casanova-Páez   : Triplet and SCS-CIS(D). UHF-(DLPNO)-IP/EA/STEOM-CCSD. UHF-CVS-IP/STEOM-CCSD   
  Vijay G. Chilkuri      : MRCI spin determinant printing, contributions to CSF-ICE 
  Pauline Colinet        : FMM embedding                                 
  Dipayan Datta          : RHF DLPNO-CCSD density                        
  Achintya Kumar Dutta   : EOM-CC, STEOM-CC                              
  Nicolas Foglia         : Exact transition moments, OPA infrastructure, MCD improvements    
  Dmitry Ganyushin       : Spin-Orbit,Spin-Spin,Magnetic field MRCI      
  Miquel Garcia-Rates    : C-PCM and meta-GGA Hessian, CCSD/C-PCM, Gaussian charge scheme 
  Tiago L. C. Gouveia    : GS-ROHF, GS-ROCIS                             
  Yang Guo               : DLPNO-NEVPT2, F12-NEVPT2, CIM, IAO-localization        
  Andreas Hansen         : Spin unrestricted coupled pair/coupled cluster methods 
  Ingolf Harden          : AUTO-CI MPn and infrastructure                
  Benjamin Helmich-Paris : MC-RPA, TRAH-(SCF,CASSCF), AVAS, COSX integrals, SCF dyn. polar. 
  Lee Huntington         : MR-EOM, pCC                                   
  Robert Izsak           : Overlap fitted RIJCOSX, COSX-SCS-MP3, EOM     
  Riya Kayal             : Wick's Theorem for AUTO-CI, AUTO-CI UHF-CCSDT 
  Emily Kempfer          : AUTO-CI, RHF CISDT and CCSDT                  
  Christian Kollmar      : KDIIS, OOCD, Brueckner-CCSD(T), CCSD density, CASPT2, CASPT2-K, improved NEVPT2 
  Axel Koslowski         : Symmetry handling                             
  Simone Kossmann        : meta-GGA functionals, TD-DFT gradient, OOMP2, (MP2 Hessian; deprecated post 5.0) 
  Lucas Lang             : DCDCAS                                        
  Marvin Lechner         : AUTO-CI (C++ implementation), FIC-MRCC        
  Spencer Leger          : CASSCF response                               
  Dagmar Lenk            : GEPOL surface, SMD, ORCA-2-JSON               
  Dimitrios Liakos       : Extrapolation schemes; Compound Job, initial MDCI parallelization 
  Dimitrios Manganas     : Further ROCIS development; embedding schemes. LFT, Crystal Embedding 
  Dimitrios Pantazis     : SARC Basis sets                               
  Anastasios Papadopoulos: AUTO-CI, single reference methods and gradients 
  Taras Petrenko         : pre 6.0 DFT Hessian and TD-DFT gradient, (ASA, deprecated), ECA, 1-Electron XAS/XES, NRVS 
  Peter Pinski           : DLPNO-MP2, DLPNO-MP2 Gradient                 
  Christoph Reimann      : Effective Core Potentials                     
  Marius Retegan         : Local ZFS, SOC                                
  Christoph Riplinger    : Optimizer, TS searches, QM/MM, DLPNO-CCSD(T), (RO)-DLPNO pert. Triples 
  Michael Roemelt        : Original ROCIS implementation                 
  Masaaki Saitow         : Open-shell DLPNO-CCSD energy and density      
  Barbara Sandhoefer     : DKH picture change effects                    
  Kantharuban Sivalingam : CASSCF convergence/infrastructure, NEVPT2 and variants, FIC-MRCI 
  Bernardo de Souza      : ESD, SOC TD-DFT                               
  Georgi L. Stoychev     : AutoAux, RI-MP2 NMR, DLPNO-MP2 response, X2C  
  Van Anh Tran           : RI-MP2 g-tensors                              
  Willem Van den Heuvel  : Paramagnetic NMR                              
  Zikuan Wang            : NOTCH, Electric field optimization            
  Frank Wennmohs         : Technical directorship and infrastructure     
  Hang Xu                : AUTO-CI-Response properties                   
                                                                         
[FACCTs GmbH]                                                            
  Markus Bursch, Miquel Garcia-Rates, Christoph Riplinger, Bernardo de Souza, Georgi L. Stoychev 
                                                                 
  APM, Basis sets (HGBS, AHGBS, def-TZVP (Ac-Lr), def2-XVPD (La-Lu)), CI-OPT, improved COSX, DLPNO-Multilevel,           
  DOCKER, DRACO, updates on ESD, GOAT, IRC, LR-CPCM, MBIS, meta-GGA TD-DFT gradient, ML-optimized integration grids, 
  MM, NACMEs, nearIR, NEB, NEB-TS, NL-DFT gradient (VV10), 2- and 3-layer-ONIOM, interface openCOSMO-RS, QMMM,   
  Crystal-QMMM, SF, symmetry and pop. for TD-DFT, r2SCAN hybrids, SOLVATOR                                   
                                                                         
[Other institutions]                                                     
  V. Asgeirsson          : NEB                                           
  Christoph Bannwarth    : sTDA-DFT, sTD-DFT, PBEh-3c, B97-3c, D3        
  Sebastian Ehlert       : rSCAN, r2SCAN, r2SCAN-3c, D4, dhf basis sets  
  Marvin Friede          : D4 for Fr, Ra, Ac-Lr                          
  Lars Goerigk           : TD-DFT with DH, B97 family of functionals     
  Stefan Grimme          : VdW corrections, initial TS optimization, DFT functionals, gCP, sTDA/sTD-DF 
  Waldemar Hujo          : DFT-NL                                        
  H. Jonsson             : NEB                                           
  Holger Kruse           : gCP                                           
  Marcel Mueller         : wB97X-3c, vDZP basis set                      
  Hagen Neugebauer       : wr2SCAN                                       
  Tobias Risthaus        : range-separated hybrid DFT                    
  Lukas Wittmann         : regularized MP2, r2SCAN double-hybrids, wr2SCAN        
                                                                         
We gratefully acknowledge several colleagues who have allowed us to      
interface, adapt or use parts of their codes:                            
  Ed Valeev, F. Pavosevic, A. Kumar             : LibInt (2-el integral package), F12 methods 
  Garnet Chan, S. Sharma, J. Yang, R. Olivares  : DMRG                   
  Ulf Ekstrom                                   : XCFun DFT Library      
  Mihaly Kallay                                 : mrcc  (arbitrary order and MRCC methods)
  Frank Weinhold                                : gennbo (NPA and NBO analysis)           
  Simon Mueller                                 : openCOSMO-RS                            
  Christopher J. Cramer and Donald G. Truhlar   : smd solvation model                     
  S Lehtola, MJT Oliveira, MAL Marques          : LibXC Library                           
  Liviu Ungur et al                             : ANISO software                          


 Your calculation uses the libint2 library for the computation of 2-el integrals
 For citations please refer to: http://libint.valeyev.net

 Your ORCA version has been built with support for libXC version: 6.2.2
 For citations please refer to: https://libxc.gitlab.io

 This ORCA versions uses:
   CBLAS   interface :  Fast vector & matrix operations
   LAPACKE interface :  Fast linear algebra routines
   SCALAPACK package :  Parallel linear algebra routines
   Shared memory     :  Shared parallel matrices
   BLAS/LAPACK       :  OpenBLAS 0.3.27  USE64BITINT DYNAMIC_ARCH NO_AFFINITY SkylakeX SINGLE_THREADED
        Core in use  :  SkylakeX
   Copyright (c) 2011-2014, The OpenBLAS Project


NOTE: MaxCore=8000 MB was set to SCF,MP2,MDCI,CIPSI,MRCI and CIS
      => If you want to overwrite this, your respective input block should be placed after the MaxCore statement
Your calculation utilizes the atom-pairwise dispersion correction
with the Becke-Johnson damping scheme (D3BJ)


Your calculation utilizes the SMD solvation module
Please cite in your paper:
A.V. Marenich, C.J. Cramer, D.G. Truhlar J. Phys. Chem. B, 113, (2009), 6378 

Warning: RI is on but no J-basis has been assigned. Assigning Def2/J (nothing to worry about!)
================================================================================

----- Orbital basis set information -----
Your calculation utilizes the basis: def2-TZVP
   F. Weigend and R. Ahlrichs, Phys. Chem. Chem. Phys. 7, 3297 (2005).

----- AuxJ basis set information -----
Your calculation utilizes the auxiliary basis: def2/J
   F. Weigend, Phys. Chem. Chem. Phys. 8, 1057 (2006).

================================================================================
                                        WARNINGS
                       Please study these warnings very carefully!
================================================================================


WARNING: your system is open-shell and RHF/RKS was chosen
  ===> : WILL SWITCH to UHF/UKS


================================================================================
                                       INPUT FILE
================================================================================
NAME = rf_mecn_freq_B3L_C5_P_B.inp
|  1> !B3LYP def2-TZVP freq d3 TightSCF SlowConv defgrid2
|  2>  
|  3> %pal
|  4> nprocs 20
|  5> end
|  6>  
|  7> %scf
|  8> MaxIter 1500
|  9> end
| 10>  
| 11> %maxcore 8000
| 12>  
| 13> !CPCM
| 14> %cpcm smd true
| 15> SMDsolvent "ACETONITRILE"
| 16> end
| 17>  
| 18> * xyz 0 2
| 19> 6        4.465561000      0.356012000      0.248830000
| 20> 8        5.258925000     -0.346807000     -0.544098000
| 21> 8        4.653577000      1.460735000      0.669999000
| 22> 6        3.171685000     -0.434316000      0.592154000
| 23> 6        2.025272000     -0.089688000     -0.411402000
| 24> 6        0.774047000     -1.028605000     -0.338413000
| 25> 6       -0.411217000     -0.465418000     -1.058306000
| 26> 6       -1.858930000     -0.675158000     -0.714865000
| 27> 6       -2.461253000      0.491939000      0.132697000
| 28> 6       -3.975495000      0.384850000      0.488997000
| 29> 9        3.399182000     -1.765950000      0.569459000
| 30> 9        2.782060000     -0.088440000      1.835705000
| 31> 9        1.628906000      1.177822000     -0.166106000
| 32> 9        2.529761000     -0.146150000     -1.664044000
| 33> 9        1.129407000     -2.235184000     -0.871049000
| 34> 9        0.459553000     -1.238284000      0.960847000
| 35> 9       -0.174912000      0.202583000     -2.171929000
| 36> 9       -2.006786000     -1.827385000     -0.021089000
| 37> 9       -2.568411000     -0.763618000     -1.866893000
| 38> 9       -2.282485000      1.639074000     -0.556471000
| 39> 9       -1.774782000      0.567900000      1.290723000
| 40> 9       -4.220816000     -0.718527000      1.197334000
| 41> 9       -4.317052000      1.448211000      1.223417000
| 42> 9       -4.726460000      0.370920000     -0.612378000
| 43> 1        6.053567000      0.182000000     -0.758635000
| 44> *
| 45> 
| 46>                          ****END OF INPUT****
================================================================================

                       ****************************
                       * Single Point Calculation *
                       ****************************

---------------------------------
CARTESIAN COORDINATES (ANGSTROEM)
---------------------------------
  C      4.465561    0.356012    0.248830
  O      5.258925   -0.346807   -0.544098
  O      4.653577    1.460735    0.669999
  C      3.171685   -0.434316    0.592154
  C      2.025272   -0.089688   -0.411402
  C      0.774047   -1.028605   -0.338413
  C     -0.411217   -0.465418   -1.058306
  C     -1.858930   -0.675158   -0.714865
  C     -2.461253    0.491939    0.132697
  C     -3.975495    0.384850    0.488997
  F      3.399182   -1.765950    0.569459
  F      2.782060   -0.088440    1.835705
  F      1.628906    1.177822   -0.166106
  F      2.529761   -0.146150   -1.664044
  F      1.129407   -2.235184   -0.871049
  F      0.459553   -1.238284    0.960847
  F     -0.174912    0.202583   -2.171929
  F     -2.006786   -1.827385   -0.021089
  F     -2.568411   -0.763618   -1.866893
  F     -2.282485    1.639074   -0.556471
  F     -1.774782    0.567900    1.290723
  F     -4.220816   -0.718527    1.197334
  F     -4.317052    1.448211    1.223417
  F     -4.726460    0.370920   -0.612378
  H      6.053567    0.182000   -0.758635

----------------------------
CARTESIAN COORDINATES (A.U.)
----------------------------
  NO LB      ZA    FRAG     MASS         X           Y           Z
   0 C     6.0000    0    12.011    8.438687    0.672765    0.470221
   1 O     8.0000    0    15.999    9.937928   -0.655370   -1.028196
   2 O     8.0000    0    15.999    8.793986    2.760389    1.266115
   3 C     6.0000    0    12.011    5.993616   -0.820738    1.119009
   4 C     6.0000    0    12.011    3.827209   -0.169486   -0.777437
   5 C     6.0000    0    12.011    1.462737   -1.943782   -0.639508
   6 C     6.0000    0    12.011   -0.777088   -0.879513   -1.999909
   7 C     6.0000    0    12.011   -3.512869   -1.275864   -1.350899
   8 C     6.0000    0    12.011   -4.651094    0.929630    0.250761
   9 C     6.0000    0    12.011   -7.512597    0.727261    0.924070
  10 F     9.0000    0    18.998    6.423523   -3.337162    1.076122
  11 F     9.0000    0    18.998    5.257331   -0.167127    3.468980
  12 F     9.0000    0    18.998    3.078186    2.225761   -0.313895
  13 F     9.0000    0    18.998    4.780555   -0.276183   -3.144587
  14 F     9.0000    0    18.998    2.134270   -4.223886   -1.646044
  15 F     9.0000    0    18.998    0.868429   -2.340018    1.815738
  16 F     9.0000    0    18.998   -0.330536    0.382826   -4.104351
  17 F     9.0000    0    18.998   -3.792276   -3.453257   -0.039852
  18 F     9.0000    0    18.998   -4.853593   -1.443029   -3.527916
  19 F     9.0000    0    18.998   -4.313272    3.097401   -1.051578
  20 F     9.0000    0    18.998   -3.353852    1.073175    2.439113
  21 F     9.0000    0    18.998   -7.976186   -1.357819    2.262633
  22 F     9.0000    0    18.998   -8.158046    2.736722    2.311923
  23 F     9.0000    0    18.998   -8.931715    0.700937   -1.157227
  24 H     1.0000    0     1.008   11.439584    0.343930   -1.433612

--------------------------------
INTERNAL COORDINATES (ANGSTROEM)
--------------------------------
 C      0   0   0     0.000000000000     0.00000000     0.00000000
 O      1   0   0     1.323675109852     0.00000000     0.00000000
 O      1   2   0     1.197140864538   127.34306481     0.00000000
 C      1   2   3     1.554543283391   111.17520560   179.30287691
 C      4   1   2     1.562099827184   110.90295218   267.15179006
 C      5   4   1     1.566032096617   115.09680771   168.42227236
 C      6   5   4     1.496755249904   112.62452970   165.69953664
 C      7   6   5     1.502602914429   126.90624775   210.93054087
 C      8   7   6     1.563096205479   113.01527105    97.06422296
 C      9   8   7     1.559277582243   116.54065793   177.72199617
 F      4   1   2     1.351117706934   110.92922798    28.78735493
 F      4   1   2     1.348279250601   108.28838868   147.72277522
 F      5   4   1     1.350502770701   107.80425952   289.83867847
 F      5   4   1     1.351595016537   108.19555283    46.97643109
 F      6   5   4     1.365948286480   107.67196507   287.81943176
 F      6   5   4     1.353125384684   108.86606174    43.88430356
 F      7   6   5     1.319932413101   117.02943743    36.53993694
 F      8   7   6     1.353075605589   109.95859055   335.78733662
 F      8   7   6     1.355860233853   108.60601737   216.79082984
 F      9   8   7     1.350121934594   107.85415141    56.56474755
 F      9   8   7     1.348345921505   108.15422139   298.99222726
 F     10   9   8     1.333928222484   110.90038465    59.97351994
 F     10   9   8     1.336701364169   108.60569432   179.25890330
 F     10   9   8     1.333105159674   111.03785338   298.55434392
 H      2   1   3     0.978324524778   109.34155650   359.45553978

---------------------------
INTERNAL COORDINATES (A.U.)
---------------------------
 C      0   0   0     0.000000000000     0.00000000     0.00000000
 O      1   0   0     2.501383447908     0.00000000     0.00000000
 O      1   2   0     2.262268377702   127.34306481     0.00000000
 C      1   2   3     2.937661068936   111.17520560   179.30287691
 C      4   1   2     2.951940867224   110.90295218   267.15179006
 C      5   4   1     2.959371779537   115.09680771   168.42227236
 C      6   5   4     2.828457511827   112.62452970   165.69953664
 C      7   6   5     2.839507996302   126.90624775   210.93054087
 C      8   7   6     2.953823749326   113.01527105    97.06422296
 C      9   8   7     2.946607597202   116.54065793   177.72199617
 F      4   1   2     2.553242440797   110.92922798    28.78735493
 F      4   1   2     2.547878535685   108.28838868   147.72277522
 F      5   4   1     2.552080379727   107.80425952   289.83867847
 F      5   4   1     2.554144425229   108.19555283    46.97643109
 F      6   5   4     2.581268174546   107.67196507   287.81943176
 F      6   5   4     2.557036401910   108.86606174    43.88430356
 F      7   6   5     2.494310776047   117.02943743    36.53993694
 F      8   7   6     2.556942333054   109.95859055   335.78733662
 F      8   7   6     2.562204517857   108.60601737   216.79082984
 F      9   8   7     2.551360703783   107.85415141    56.56474755
 F      9   8   7     2.548004525433   108.15422139   298.99222726
 F     10   9   8     2.520759022803   110.90038465    59.97351994
 F     10   9   8     2.525999501117   108.60569432   179.25890330
 F     10   9   8     2.519203659502   111.03785338   298.55434392
 H      2   1   3     1.848765421929   109.34155650   359.45553978

---------------------
BASIS SET INFORMATION
---------------------
There are 4 groups of distinct atoms

 Group   1 Type C   : 11s6p2d1f contracted to 5s3p2d1f pattern {62111/411/11/1}
 Group   2 Type O   : 11s6p2d1f contracted to 5s3p2d1f pattern {62111/411/11/1}
 Group   3 Type F   : 11s6p2d1f contracted to 5s3p2d1f pattern {62111/411/11/1}
 Group   4 Type H   : 5s1p contracted to 3s1p pattern {311/1}

Atom   0C    basis set group =>   1
Atom   1O    basis set group =>   2
Atom   2O    basis set group =>   2
Atom   3C    basis set group =>   1
Atom   4C    basis set group =>   1
Atom   5C    basis set group =>   1
Atom   6C    basis set group =>   1
Atom   7C    basis set group =>   1
Atom   8C    basis set group =>   1
Atom   9C    basis set group =>   1
Atom  10F    basis set group =>   3
Atom  11F    basis set group =>   3
Atom  12F    basis set group =>   3
Atom  13F    basis set group =>   3
Atom  14F    basis set group =>   3
Atom  15F    basis set group =>   3
Atom  16F    basis set group =>   3
Atom  17F    basis set group =>   3
Atom  18F    basis set group =>   3
Atom  19F    basis set group =>   3
Atom  20F    basis set group =>   3
Atom  21F    basis set group =>   3
Atom  22F    basis set group =>   3
Atom  23F    basis set group =>   3
Atom  24H    basis set group =>   4
---------------------------------
AUXILIARY/J BASIS SET INFORMATION
---------------------------------
There are 4 groups of distinct atoms

 Group   1 Type C   : 12s5p4d2f1g contracted to 6s4p3d1f1g pattern {711111/2111/211/2/1}
 Group   2 Type O   : 12s5p4d2f1g contracted to 6s4p3d1f1g pattern {711111/2111/211/2/1}
 Group   3 Type F   : 12s5p4d2f1g contracted to 6s4p3d1f1g pattern {711111/2111/211/2/1}
 Group   4 Type H   : 5s2p1d contracted to 3s1p1d pattern {311/2/1}

Atom   0C    basis set group =>   1
Atom   1O    basis set group =>   2
Atom   2O    basis set group =>   2
Atom   3C    basis set group =>   1
Atom   4C    basis set group =>   1
Atom   5C    basis set group =>   1
Atom   6C    basis set group =>   1
Atom   7C    basis set group =>   1
Atom   8C    basis set group =>   1
Atom   9C    basis set group =>   1
Atom  10F    basis set group =>   3
Atom  11F    basis set group =>   3
Atom  12F    basis set group =>   3
Atom  13F    basis set group =>   3
Atom  14F    basis set group =>   3
Atom  15F    basis set group =>   3
Atom  16F    basis set group =>   3
Atom  17F    basis set group =>   3
Atom  18F    basis set group =>   3
Atom  19F    basis set group =>   3
Atom  20F    basis set group =>   3
Atom  21F    basis set group =>   3
Atom  22F    basis set group =>   3
Atom  23F    basis set group =>   3
Atom  24H    basis set group =>   4


           ************************************************************
           *        Program running with 20 parallel MPI-processes    *
           *              working on a common directory               *
           ************************************************************
------------------------------------------------------------------------------
                             ORCA STARTUP CALCULATIONS
                           -- RI-GTO INTEGRALS CHOSEN --
------------------------------------------------------------------------------
------------------------------------------------------------------------------
                   ___                                                        
                  /   \      - P O W E R E D   B Y -                         
                 /     \                                                     
                 |  |  |   _    _      __       _____    __    __             
                 |  |  |  | |  | |    /  \     |  _  \  |  |  /  |          
                  \  \/   | |  | |   /    \    | | | |  |  | /  /          
                 / \  \   | |__| |  /  /\  \   | |_| |  |  |/  /          
                |  |  |   |  __  | /  /__\  \  |    /   |      \           
                |  |  |   | |  | | |   __   |  |    \   |  |\   \          
                \     /   | |  | | |  |  |  |  | |\  \  |  | \   \       
                 \___/    |_|  |_| |__|  |__|  |_| \__\ |__|  \__/        
                                                                              
                      - O R C A' S   B I G   F R I E N D -                    
                                      &                                       
                       - I N T E G R A L  F E E D E R -                       
                                                                              
 v1 FN, 2020, v2 2021, v3 2022-2024                                           
------------------------------------------------------------------------------


----------------------
SHARK INTEGRAL PACKAGE
----------------------

Number of atoms                             ...     25
Number of basis functions                   ...    750
Number of shells                            ...    268
Maximum angular momentum                    ...      3
Integral batch strategy                     ... SHARK/LIBINT Hybrid
RI-J (if used) integral strategy            ... SPLIT-RIJ (Revised 2003 algorithm where possible)
Printlevel                                  ...      1
Contraction scheme used                     ... SEGMENTED contraction
Prescreening option                         ... SCHWARTZ
   Thresh                                   ... 2.500e-11
   Tcut                                     ... 2.500e-12
   Tpresel                                  ... 2.500e-12 
Coulomb Range Separation                    ... NOT USED
Exchange Range Separation                   ... NOT USED
Multipole approximations                    ... NOT USED
Finite Nucleus Model                        ... NOT USED
CABS basis                                  ... NOT available
Auxiliary Coulomb fitting basis             ... AVAILABLE
   # of basis functions in Aux-J            ...   1187
   # of shells in Aux-J                     ...    365
   Maximum angular momentum in Aux-J        ...      4
Auxiliary J/K fitting basis                 ... NOT available
Auxiliary Correlation fitting basis         ... NOT available
Auxiliary 'external' fitting basis          ... NOT available

Checking pre-screening integrals            ... done (  0.0 sec) Dimension = 268
Check shell pair data                       ... done (  0.0 sec)
Shell pair information
Shell pair cut-off parameter TPreSel        ...   2.5e-12
Total number of shell pairs                 ...     36046
Shell pairs after pre-screening             ...     22551
Total number of primitive shell pairs       ...    118872
Primitive shell pairs kept                  ...     47722
          la=0 lb=0:   4292 shell pairs
          la=1 lb=0:   6161 shell pairs
          la=1 lb=1:   2124 shell pairs
          la=2 lb=0:   3352 shell pairs
          la=2 lb=1:   2442 shell pairs
          la=2 lb=2:    689 shell pairs
          la=3 lb=0:   1526 shell pairs
          la=3 lb=1:   1182 shell pairs
          la=3 lb=2:    629 shell pairs
          la=3 lb=3:    154 shell pairs

Calculating one electron integrals          ... done (  0.0 sec)
Calculating RI/J V-Matrix + Cholesky decomp.... done (  0.1 sec)
Calculating Nuclear repulsion               ... done (  0.0 sec) ENN=   2658.145393944594 Eh

Diagonalization of the overlap matrix:
Smallest eigenvalue                        ... 5.487e-05
Time for diagonalization                   ...    0.125 sec
Threshold for overlap eigenvalues          ... 1.000e-07
Number of eigenvalues below threshold      ... 0
Time for construction of square roots      ...    0.061 sec
Total time needed                          ...    0.192 sec

-------------------
DFT GRID GENERATION
-------------------

General Integration Accuracy     IntAcc      ... 4.388
Radial Grid Type                 RadialGrid  ... OptM3 with GC (2021)
Angular Grid (max. ang.)         AngularGrid ... 4 (Lebedev-302)
Angular grid pruning method      GridPruning ... 4 (adaptive)
Weight generation scheme         WeightScheme... mBecke (2022)
Basis function cutoff            BFCut       ... 1.0000e-11
Integration weight cutoff        WCut        ... 1.0000e-14
Partially contracted basis set               ... off
Rotationally invariant grid construction     ... off
Angular grids for H and He will be reduced by one unit

Total number of grid points                  ...   148690
Total number of batches                      ...     2336
Average number of points per batch           ...       63
Average number of grid points per atom       ...     5948

--------------------
COSX GRID GENERATION
--------------------

GRIDX 1
-------
General Integration Accuracy     IntAcc      ... 3.816
Radial Grid Type                 RadialGrid  ... OptM3 with GC (2021)
Angular Grid (max. ang.)         AngularGrid ... 1 (Lebedev-50)
Angular grid pruning method      GridPruning ... 4 (adaptive)
Weight generation scheme         WeightScheme... mBecke (2022)
Basis function cutoff            BFCut       ... 1.0000e-11
Integration weight cutoff        WCut        ... 1.0000e-14
Partially contracted basis set               ... on
Rotationally invariant grid construction     ... off
Angular grids for H and He will be reduced by one unit

Total number of grid points                  ...    18693
Total number of batches                      ...      157
Average number of points per batch           ...      119
Average number of grid points per atom       ...      748
UseSFitting                                  ... on

GRIDX 2
-------
General Integration Accuracy     IntAcc      ... 4.020
Radial Grid Type                 RadialGrid  ... OptM3 with GC (2021)
Angular Grid (max. ang.)         AngularGrid ... 2 (Lebedev-110)
Angular grid pruning method      GridPruning ... 4 (adaptive)
Weight generation scheme         WeightScheme... mBecke (2022)
Basis function cutoff            BFCut       ... 1.0000e-11
Integration weight cutoff        WCut        ... 1.0000e-14
Partially contracted basis set               ... on
Rotationally invariant grid construction     ... off
Angular grids for H and He will be reduced by one unit

Total number of grid points                  ...    44059
Total number of batches                      ...      356
Average number of points per batch           ...      123
Average number of grid points per atom       ...     1762
UseSFitting                                  ... on

GRIDX 3
-------
General Integration Accuracy     IntAcc      ... 4.338
Radial Grid Type                 RadialGrid  ... OptM3 with GC (2021)
Angular Grid (max. ang.)         AngularGrid ... 3 (Lebedev-194)
Angular grid pruning method      GridPruning ... 4 (adaptive)
Weight generation scheme         WeightScheme... mBecke (2022)
Basis function cutoff            BFCut       ... 1.0000e-11
Integration weight cutoff        WCut        ... 1.0000e-14
Partially contracted basis set               ... on
Rotationally invariant grid construction     ... off
Angular grids for H and He will be reduced by one unit

Total number of grid points                  ...    97563
Total number of batches                      ...      773
Average number of points per batch           ...      126
Average number of grid points per atom       ...     3903
UseSFitting                                  ... on
Initializing property integral containers    ... done (  0.0 sec)

SHARK setup successfully completed in   3.9 seconds

Maximum memory used throughout the entire STARTUP-calculation: 57.6 MB


           ************************************************************
           *        Program running with 20 parallel MPI-processes    *
           *              working on a common directory               *
           ************************************************************
-------------------------------------------------------------------------------
                                 ORCA GUESS
                   Start orbitals & Density for SCF / CASSCF
-------------------------------------------------------------------------------

------------
SCF SETTINGS
------------
Hamiltonian:
 Density Functional     Method          .... DFT(GTOs)
 Exchange Functional    Exchange        .... B88
   X-Alpha parameter    XAlpha          ....  0.666667
   Becke's b parameter  XBeta           ....  0.004200
 Correlation Functional Correlation     .... LYP
 LDA part of GGA corr.  LDAOpt          .... VWN-5
 Gradients option       PostSCFGGA      .... off
 Hybrid DFT is turned on
   Fraction HF Exchange ScalHFX         ....  0.200000
   Scaling of DF-GGA-X  ScalDFX         ....  0.720000
   Scaling of DF-GGA-C  ScalDFC         ....  0.810000
   Scaling of DF-LDA-C  ScalLDAC        ....  1.000000
   Perturbative correction              ....  0.000000
   NL short-range parameter             ....  4.800000
 RI-approximation to the Coulomb term is turned on
   Number of AuxJ basis functions       .... 1187
   RIJ-COSX (HFX calculated with COS-X)).... on


General Settings:
 Integral files         IntName         .... rf_mecn_freq_B3L_C5_P_B
 Hartree-Fock type      HFTyp           .... UHF
 Total Charge           Charge          ....    0
 Multiplicity           Mult            ....    2
 Number of Electrons    NEL             ....  191
 Basis Dimension        Dim             ....  750
 Nuclear Repulsion      ENuc            ....   2658.1453939446 Eh

Convergence Acceleration:
 AO-DIIS                CNVDIIS         .... on
   Start iteration      DIISMaxIt       ....     0
   Startup error        DIISStart       ....  0.200000
   # of expansion vecs  DIISMaxEq       ....     5
   Bias factor          DIISBfac        ....   1.050
   Max. coefficient     DIISMaxC        ....  10.000
 MO-DIIS                CNVKDIIS        .... off
 Trust-Rad. Augm. Hess. CNVTRAH         .... auto
   Auto Start mean grad. ratio tolernc. ....  1.125000
   Auto Start start iteration           ....    50
   Auto Start num. interpolation iter.  ....    10
   Max. Number of Micro iterations      ....    24
   Max. Number of Macro iterations      .... Maxiter - #DIIS iter
   Number of Davidson start vectors     ....     2
   Converg. threshold    (grad. norm)   ....   1.000e-05
   Grad. Scal. Fac. for Micro threshold ....   0.100
   Minimum threshold for Micro iter.    ....   1.000e-02
   NR start threshold (gradient norm)   ....   1.000e-04
   Initial trust radius                 ....   0.400
   Minimum AH scaling param. (alpha)    ....   1.000
   Maximum AH scaling param. (alpha)    .... 1000.000
   Quad. conv. algorithm                .... NR
   White noise on init. David. guess    .... on
   Maximum white noise                  ....   0.010
   Pseudo random numbers                .... off
   Inactive MOs                         .... canonical
   Orbital update algorithm             .... Taylor
   Preconditioner                       .... Diag
   Full preconditioner red. dimension   ....   250
 SOSCF                  CNVSOSCF        .... on
   Start iteration      SOSCFMaxIt      ....   150
   Startup grad/error   SOSCFStart      ....  0.001000
   Hessian update       SOSCFHessUp     .... L-BFGS
 Level Shifting         CNVShift        .... on
   Level shift para.    LevelShift      ....    0.2500
   Turn off err/grad.   ShiftErr        ....    0.0000
 Zerner damping         CNVZerner       .... off
 Static damping         CNVDamp         .... on
   Fraction old density DampFac         ....    0.8500
   Max. Damping (<1)    DampMax         ....    0.9800
   Min. Damping (>=0)   DampMin         ....    0.0000
   Turn off err/grad.   DampErr         ....    0.0300

SCF Procedure:
 Maximum # iterations   MaxIter         ....  1500
 SCF integral mode      SCFMode         .... Direct
   Integral package                     .... SHARK and LIBINT hybrid scheme
 Reset frequency        DirectResetFreq ....    20
 Integral Threshold     Thresh          ....  2.500e-11 Eh
 Primitive CutOff       TCut            ....  2.500e-12 Eh

Convergence Tolerance:
 Convergence Check Mode ConvCheckMode   .... Total+1el-Energy
 Convergence forced     ConvForced      .... 0
 Energy Change          TolE            ....  1.000e-08 Eh
 1-El. energy change                    ....  1.000e-05 Eh
 Orbital Gradient       TolG            ....  1.000e-05
 Orbital Rotation angle TolX            ....  1.000e-05
 DIIS Error             TolErr          ....  5.000e-07

------------------------------
INITIAL GUESS: MODEL POTENTIAL
------------------------------
Loading Hartree-Fock densities                     ... done
Calculating cut-offs                               ... done
Initializing the effective Hamiltonian             ... done
Setting up the integral package (SHARK)            ... done
Starting the Coulomb interaction                   ... done (   0.2 sec)
Making the grid                                    ... done (   0.5 sec)
Mapping shells                                     ... done
Starting the XC term evaluation                    ... done (   0.2 sec)
  promolecular density results
     # of electrons  =    190.997745348
     EX              =   -198.636988995
     EC              =     -7.176390885
     EX+EC           =   -205.813379879
Transforming the Hamiltonian                       ... done (   0.1 sec)
Diagonalizing the Hamiltonian                      ... done (   0.1 sec)
Back transforming the eigenvectors                 ... done (   0.0 sec)
Now organizing SCF variables                       ... done
                      ------------------
                      INITIAL GUESS DONE (   1.2 sec)
                      ------------------
             **** ENERGY FILE WAS UPDATED (rf_mecn_freq_B3L_C5_P_B.en.tmp) ****
Finished Guess after   1.9 sec
Maximum memory used throughout the entire GUESS-calculation: 46.9 MB


           ************************************************************
           *        Program running with 20 parallel MPI-processes    *
           *              working on a common directory               *
           ************************************************************

-------------------------------------------------------------------------------------------
                                      ORCA LEAN-SCF
                              memory conserving SCF solver
-------------------------------------------------------------------------------------------

--------------------
CPCM SOLVATION MODEL
--------------------
CPCM parameters:
  Epsilon                                         ...      35.6880
  Refrac                                          ...       1.3442
  Rsolv                                           ...       1.3000
  Surface type                                    ... GAUSSIAN VDW
  Discretization scheme                           ... Constant charge density
    Threshold for H atoms                         ...       5.0000 (charges/Ang^2)
    Threshold for non-H atoms                     ...       5.0000 (charges/Ang^2)
  Epsilon function type                           ...         CPCM
Solvent:                                          ... ACETONITRILE
SMD-CDS solvent descriptors:
  Soln                                            ...       1.3442
  Soln25                                          ...       1.3416
  Sola                                            ...       0.0700
  Solb                                            ...       0.3200
  Solg                                            ...      41.2500
  Solc                                            ...       0.0000
  Solh                                            ...       0.0000
Radii:
  Scheme                                          ... Element-dependent radii
  Radius for C  used is    3.4960 Bohr (=   1.8500 Ang.)
  Radius for O  used is    4.0969 Bohr (=   2.1680 Ang.)
  Radius for F  used is    3.2692 Bohr (=   1.7300 Ang.)
  Radius for H  used is    2.2677 Bohr (=   1.2000 Ang.)
Calculating surface                               ...        done! (  0.0s)
Cavity surface points                             ...         2184
Cavity Volume                                     ...    2111.2812
Cavity Surface-area                               ...    1114.5676
Calculating surface distance matrix               ...        done! (  0.0s)
Performing Cholesky decomposition & store         ...        done! (  0.1s)
Overall time for CPCM initialization              ...                 0.2s

----------------------------------------D-I-I-S--------------------------------------------
Iteration    Energy (Eh)           Delta-E    RMSDP     MaxDP     DIISErr   Damp  Time(sec)
-------------------------------------------------------------------------------------------
               ***  Starting incremental Fock matrix formation  ***
    1    -1853.2332974182268117     0.00e+00  1.94e-04  1.44e-02  1.50e-01  0.850   7.4
Warning: op=1 Small HOMO/LUMO gap (   0.063) - skipping pre-diagonalization
         Will do a full diagonalization
    2    -1853.3768566835501588    -1.44e-01  1.84e-04  1.28e-02  1.01e-01  0.850   5.3
                               ***Turning on AO-DIIS***
    3    -1853.4543741476459218    -7.75e-02  8.41e-05  5.24e-03  5.88e-02  0.850   4.3
    4    -1853.5011403116300244    -4.68e-02  4.98e-05  3.05e-03  4.51e-02  0.850   4.1
    5    -1853.5345516865704667    -3.34e-02  3.77e-05  3.00e-03  3.85e-02  0.850   4.2
    6    -1853.5611361001469959    -2.66e-02  3.29e-05  2.85e-03  3.35e-02  0.850   4.0
    7    -1853.5833083345228260    -2.22e-02  3.05e-05  2.65e-03  2.85e-02  0.850   3.4
    8    -1853.6020257296654563    -1.87e-02  1.78e-04  1.56e-02  2.35e-02  0.000   3.2
    9    -1853.6989384132170926    -9.69e-02  1.79e-05  1.59e-03  3.69e-03  0.000   3.6
   10    -1853.6991468437331605    -2.08e-04  7.43e-06  8.31e-04  1.51e-03  0.000   3.2
                              *** Initializing SOSCF ***
---------------------------------------S-O-S-C-F--------------------------------------
Iteration    Energy (Eh)           Delta-E    RMSDP     MaxDP     MaxGrad    Time(sec)
--------------------------------------------------------------------------------------
   11    -1853.6991703485932703    -2.35e-05  3.57e-06  3.57e-04  5.11e-04     3.4
               *** Restarting incremental Fock matrix formation ***
   12    -1853.6991662560117220     4.09e-06  2.77e-06  2.66e-04  1.52e-04     5.8
   13    -1853.6991664629417755    -2.07e-07  1.70e-06  1.35e-04  3.17e-04     4.1
   14    -1853.6991673706102119    -9.08e-07  1.04e-06  8.84e-05  5.63e-05     3.7
   15    -1853.6991674033301933    -3.27e-08  4.50e-07  4.91e-05  2.52e-05     3.5
   16    -1853.6991674518544642    -4.85e-08  1.16e-07  7.85e-06  3.31e-06     2.9
   17    -1853.6991674501919078     1.66e-09  5.40e-08  5.14e-06  2.81e-06     2.8
                 **** Energy Check signals convergence ****

               *****************************************************
               *                     SUCCESS                       *
               *           SCF CONVERGED AFTER  17 CYCLES          *
               *****************************************************

Recomputing exchange energy using gridx3       ... done (    7.435 sec)
Old exchange energy                            :    -39.824657927 Eh
New exchange energy                            :    -39.824667112 Eh
Exchange energy change after final integration :     -0.000009185 Eh
Total energy after final integration           :  -1853.699176636 Eh

SMD CDS free energy correction energy :                 3.31551     Kcal/mol
Total Energy after SMD CDS correction =             -1853.693893041 Eh
             **** ENERGY FILE WAS UPDATED (rf_mecn_freq_B3L_C5_P_B.en.tmp) ****

----------------
TOTAL SCF ENERGY
----------------

Total Energy       :      -1853.69389304083165 Eh          -50441.57523 eV

Components:
Nuclear Repulsion  :       2658.14539394459416 Eh           72331.81345 eV
Electronic Energy  :      -4511.83049764700627 Eh         -122773.14951 eV
One Electron Energy:      -7866.89977231696685 Eh         -214069.22587 eV
Two Electron Energy:       3355.06927466996058 Eh           91296.07637 eV
CPCM Dielectric    :         -0.01406374777947 Eh              -0.38269 eV
SMD CDS (Gcds)     :          0.00528359472487 Eh               0.14377 eV

Virial components:
Potential Energy   :      -3701.08280130581807 Eh         -100711.58310 eV
Kinetic Energy     :       1847.38890826498664 Eh           50270.00787 eV
Virial Ratio       :          2.00341291687291

DFT components:
N(Alpha)           :       95.999990776677 electrons
N(Beta)            :       94.999979882890 electrons
N(Total)           :      190.999970659566 electrons
E(X)               :     -158.704100518550 Eh       
E(C)               :       -8.381077053081 Eh       
E(XC)              :     -167.085177571631 Eh       

CPCM Solvation Model Properties:
Surface-charge          :         -0.00922171151702
Corrected charge        :          0.00000000000000
Outlying charge corr.   :          0.00000469395954 Eh               0.00013 eV
Free-energy (cav+disp)  :          0.00528359472487 Eh               0.14377 eV

---------------
SCF CONVERGENCE
---------------

  Last Energy change         ...   -1.6626e-09  Tolerance :   1.0000e-08
  Last MAX-Density change    ...    5.1371e-06  Tolerance :   1.0000e-07
  Last RMS-Density change    ...    5.3986e-08  Tolerance :   5.0000e-09
  Last DIIS Error            ...    5.1058e-04  Tolerance :   5.0000e-07
  Last Orbital Gradient      ...    2.8110e-06  Tolerance :   1.0000e-05
  Last Orbital Rotation      ...    3.9830e-06  Tolerance :   1.0000e-05


----------------------
UHF SPIN CONTAMINATION
----------------------

Warning: in a DFT calculation there is little theoretical justification to 
         calculate <S**2> as in Hartree-Fock theory. We will do it anyways
         but you should keep in mind that the values have only limited relevance

Expectation value of <S**2>     :     0.754087
Ideal value S*(S+1) for S=0.5   :     0.750000
Deviation                       :     0.004087

----------------
ORBITAL ENERGIES
----------------
                 SPIN UP ORBITALS
  NO   OCC          E(Eh)            E(eV) 
   0   1.0000     -24.760326      -673.7627 
   1   1.0000     -24.744353      -673.3281 
   2   1.0000     -24.744318      -673.3271 
   3   1.0000     -24.743003      -673.2913 
   4   1.0000     -24.742900      -673.2885 
   5   1.0000     -24.742885      -673.2881 
   6   1.0000     -24.741861      -673.2603 
   7   1.0000     -24.741656      -673.2547 
   8   1.0000     -24.739810      -673.2044 
   9   1.0000     -24.739534      -673.1969 
  10   1.0000     -24.738005      -673.1553 
  11   1.0000     -24.733674      -673.0375 
  12   1.0000     -24.732225      -672.9981 
  13   1.0000     -24.731339      -672.9739 
  14   1.0000     -19.207118      -522.6523 
  15   1.0000     -19.154215      -521.2127 
  16   1.0000     -10.461083      -284.6605 
  17   1.0000     -10.408443      -283.2281 
  18   1.0000     -10.406306      -283.1700 
  19   1.0000     -10.403791      -283.1015 
  20   1.0000     -10.402661      -283.0708 
  21   1.0000     -10.395638      -282.8797 
  22   1.0000     -10.346003      -281.5290 
  23   1.0000     -10.330513      -281.1076 
  24   1.0000      -1.353088       -36.8194 
  25   1.0000      -1.325445       -36.0672 
  26   1.0000      -1.319183       -35.8968 
  27   1.0000      -1.306896       -35.5624 
  28   1.0000      -1.301803       -35.4239 
  29   1.0000      -1.300720       -35.3944 
  30   1.0000      -1.296618       -35.2828 
  31   1.0000      -1.265627       -34.4395 
  32   1.0000      -1.259724       -34.2788 
  33   1.0000      -1.258151       -34.2360 
  34   1.0000      -1.254664       -34.1411 
  35   1.0000      -1.247567       -33.9480 
  36   1.0000      -1.243444       -33.8358 
  37   1.0000      -1.242851       -33.8197 
  38   1.0000      -1.146521       -31.1984 
  39   1.0000      -1.062343       -28.9078 
  40   1.0000      -0.861655       -23.4468 
  41   1.0000      -0.834463       -22.7069 
  42   1.0000      -0.813870       -22.1465 
  43   1.0000      -0.779492       -21.2111 
  44   1.0000      -0.734916       -19.9981 
  45   1.0000      -0.704556       -19.1719 
  46   1.0000      -0.676113       -18.3980 
  47   1.0000      -0.667998       -18.1772 
  48   1.0000      -0.648002       -17.6330 
  49   1.0000      -0.644248       -17.5309 
  50   1.0000      -0.638642       -17.3783 
  51   1.0000      -0.633515       -17.2388 
  52   1.0000      -0.630300       -17.1513 
  53   1.0000      -0.621498       -16.9118 
  54   1.0000      -0.614391       -16.7184 
  55   1.0000      -0.611691       -16.6450 
  56   1.0000      -0.606685       -16.5087 
  57   1.0000      -0.599390       -16.3102 
  58   1.0000      -0.591335       -16.0911 
  59   1.0000      -0.588405       -16.0113 
  60   1.0000      -0.580307       -15.7910 
  61   1.0000      -0.572510       -15.5788 
  62   1.0000      -0.540235       -14.7005 
  63   1.0000      -0.520692       -14.1687 
  64   1.0000      -0.512751       -13.9527 
  65   1.0000      -0.507832       -13.8188 
  66   1.0000      -0.506103       -13.7718 
  67   1.0000      -0.504755       -13.7351 
  68   1.0000      -0.503659       -13.7052 
  69   1.0000      -0.495447       -13.4818 
  70   1.0000      -0.491991       -13.3877 
  71   1.0000      -0.488618       -13.2960 
  72   1.0000      -0.486560       -13.2400 
  73   1.0000      -0.483553       -13.1582 
  74   1.0000      -0.478937       -13.0325 
  75   1.0000      -0.476575       -12.9683 
  76   1.0000      -0.474243       -12.9048 
  77   1.0000      -0.465764       -12.6741 
  78   1.0000      -0.464444       -12.6382 
  79   1.0000      -0.462286       -12.5794 
  80   1.0000      -0.459907       -12.5147 
  81   1.0000      -0.458271       -12.4702 
  82   1.0000      -0.452774       -12.3206 
  83   1.0000      -0.446734       -12.1562 
  84   1.0000      -0.446406       -12.1473 
  85   1.0000      -0.444180       -12.0867 
  86   1.0000      -0.441886       -12.0243 
  87   1.0000      -0.441139       -12.0040 
  88   1.0000      -0.437379       -11.9017 
  89   1.0000      -0.430056       -11.7024 
  90   1.0000      -0.415239       -11.2992 
  91   1.0000      -0.383304       -10.4302 
  92   1.0000      -0.364890        -9.9292 
  93   1.0000      -0.360005        -9.7962 
  94   1.0000      -0.318216        -8.6591 
  95   1.0000      -0.276003        -7.5104 
  96   0.0000      -0.051774        -1.4088 
  97   0.0000       0.001177         0.0320 
  98   0.0000       0.022410         0.6098 
  99   0.0000       0.034730         0.9450 
 100   0.0000       0.043960         1.1962 
 101   0.0000       0.049433         1.3451 
 102   0.0000       0.072194         1.9645 
 103   0.0000       0.096088         2.6147 
 104   0.0000       0.098547         2.6816 
 105   0.0000       0.112577         3.0634 
 106   0.0000       0.118509         3.2248 

                 SPIN DOWN ORBITALS
  NO   OCC          E(Eh)            E(eV) 
   0   1.0000     -24.755750      -673.6382 
   1   1.0000     -24.744352      -673.3280 
   2   1.0000     -24.744318      -673.3271 
   3   1.0000     -24.742974      -673.2906 
   4   1.0000     -24.742840      -673.2869 
   5   1.0000     -24.742797      -673.2857 
   6   1.0000     -24.741786      -673.2582 
   7   1.0000     -24.741577      -673.2525 
   8   1.0000     -24.739334      -673.1915 
   9   1.0000     -24.739195      -673.1877 
  10   1.0000     -24.737438      -673.1399 
  11   1.0000     -24.733672      -673.0374 
  12   1.0000     -24.732222      -672.9980 
  13   1.0000     -24.729731      -672.9302 
  14   1.0000     -19.207117      -522.6522 
  15   1.0000     -19.154205      -521.2124 
  16   1.0000     -10.460960      -284.6572 
  17   1.0000     -10.409320      -283.2520 
  18   1.0000     -10.407058      -283.1905 
  19   1.0000     -10.403137      -283.0837 
  20   1.0000     -10.402443      -283.0649 
  21   1.0000     -10.395624      -282.8793 
  22   1.0000     -10.345996      -281.5289 
  23   1.0000     -10.316030      -280.7134 
  24   1.0000      -1.352955       -36.8158 
  25   1.0000      -1.324221       -36.0339 
  26   1.0000      -1.318278       -35.8722 
  27   1.0000      -1.304913       -35.5085 
  28   1.0000      -1.301072       -35.4040 
  29   1.0000      -1.299830       -35.3702 
  30   1.0000      -1.289097       -35.0781 
  31   1.0000      -1.265481       -34.4355 
  32   1.0000      -1.259562       -34.2744 
  33   1.0000      -1.257715       -34.2242 
  34   1.0000      -1.254293       -34.1311 
  35   1.0000      -1.246611       -33.9220 
  36   1.0000      -1.242994       -33.8236 
  37   1.0000      -1.240983       -33.7689 
  38   1.0000      -1.146512       -31.1982 
  39   1.0000      -1.062329       -28.9074 
  40   1.0000      -0.849256       -23.1094 
  41   1.0000      -0.833387       -22.6776 
  42   1.0000      -0.807297       -21.9677 
  43   1.0000      -0.777448       -21.1554 
  44   1.0000      -0.730480       -19.8774 
  45   1.0000      -0.702995       -19.1295 
  46   1.0000      -0.671190       -18.2640 
  47   1.0000      -0.667781       -18.1712 
  48   1.0000      -0.645976       -17.5779 
  49   1.0000      -0.642051       -17.4711 
  50   1.0000      -0.637934       -17.3591 
  51   1.0000      -0.632379       -17.2079 
  52   1.0000      -0.629256       -17.1229 
  53   1.0000      -0.619482       -16.8570 
  54   1.0000      -0.613284       -16.6883 
  55   1.0000      -0.610149       -16.6030 
  56   1.0000      -0.604338       -16.4449 
  57   1.0000      -0.597852       -16.2684 
  58   1.0000      -0.589808       -16.0495 
  59   1.0000      -0.585879       -15.9426 
  60   1.0000      -0.578462       -15.7408 
  61   1.0000      -0.571962       -15.5639 
  62   1.0000      -0.520721       -14.1695 
  63   1.0000      -0.516447       -14.0532 
  64   1.0000      -0.510805       -13.8997 
  65   1.0000      -0.505879       -13.7657 
  66   1.0000      -0.504559       -13.7298 
  67   1.0000      -0.503267       -13.6946 
  68   1.0000      -0.501672       -13.6512 
  69   1.0000      -0.495100       -13.4724 
  70   1.0000      -0.491063       -13.3625 
  71   1.0000      -0.486757       -13.2453 
  72   1.0000      -0.485879       -13.2214 
  73   1.0000      -0.482828       -13.1384 
  74   1.0000      -0.477805       -13.0017 
  75   1.0000      -0.475401       -12.9363 
  76   1.0000      -0.471314       -12.8251 
  77   1.0000      -0.464224       -12.6322 
  78   1.0000      -0.463766       -12.6197 
  79   1.0000      -0.461272       -12.5518 
  80   1.0000      -0.459588       -12.5060 
  81   1.0000      -0.456625       -12.4254 
  82   1.0000      -0.452425       -12.3111 
  83   1.0000      -0.445982       -12.1358 
  84   1.0000      -0.444522       -12.0961 
  85   1.0000      -0.443450       -12.0669 
  86   1.0000      -0.441662       -12.0182 
  87   1.0000      -0.440468       -11.9857 
  88   1.0000      -0.436418       -11.8755 
  89   1.0000      -0.428676       -11.6649 
  90   1.0000      -0.413721       -11.2579 
  91   1.0000      -0.380709       -10.3596 
  92   1.0000      -0.362904        -9.8751 
  93   1.0000      -0.359601        -9.7852 
  94   1.0000      -0.317950        -8.6519 
  95   0.0000      -0.131795        -3.5863 
  96   0.0000      -0.051029        -1.3886 
  97   0.0000       0.004123         0.1122 
  98   0.0000       0.024570         0.6686 
  99   0.0000       0.036604         0.9961 
 100   0.0000       0.048798         1.3279 
 101   0.0000       0.053328         1.4511 
 102   0.0000       0.079940         2.1753 
 103   0.0000       0.097918         2.6645 
 104   0.0000       0.101474         2.7613 
 105   0.0000       0.115782         3.1506 
*Only the first 10 virtual orbitals were printed.

                    ********************************
                    * MULLIKEN POPULATION ANALYSIS *
                    ********************************

--------------------------------------------
MULLIKEN ATOMIC CHARGES AND SPIN POPULATIONS
--------------------------------------------
   0 C :    0.229497    0.000334
   1 O :   -0.347945   -0.000047
   2 O :   -0.286033    0.000354
   3 C :    0.416529    0.001181
   4 C :    0.309719   -0.001141
   5 C :    0.360902    0.007086
   6 C :    0.128635    0.835423
   7 C :    0.359435   -0.024510
   8 C :    0.320056    0.027433
   9 C :    0.479202    0.004417
  10 F :   -0.176557   -0.000044
  11 F :   -0.173770    0.000089
  12 F :   -0.175348    0.001117
  13 F :   -0.175194    0.001558
  14 F :   -0.179366    0.029755
  15 F :   -0.176583    0.005898
  16 F :   -0.140782    0.088552
  17 F :   -0.172409    0.008242
  18 F :   -0.172351    0.010857
  19 F :   -0.171947    0.000634
  20 F :   -0.170237    0.000674
  21 F :   -0.155663    0.000056
  22 F :   -0.155216    0.002012
  23 F :   -0.154963    0.000035
  24 H :    0.380389    0.000032
Sum of atomic charges         :   -0.0000000
Sum of atomic spin populations:    1.0000000

-----------------------------------------------------
MULLIKEN REDUCED ORBITAL CHARGES AND SPIN POPULATIONS
-----------------------------------------------------
CHARGE
  0 C s       :     3.099624  s :     3.099624
      pz      :     0.758421  p :     2.387780
      px      :     0.832201
      py      :     0.797158
      dz2     :     0.049735  d :     0.258466
      dxz     :     0.020359
      dyz     :     0.054050
      dx2y2   :     0.047244
      dxy     :     0.087078
      f0      :     0.001877  f :     0.024632
      f+1     :     0.002282
      f-1     :     0.004011
      f+2     :     0.004406
      f-2     :     0.003170
      f+3     :     0.005354
      f-3     :     0.003532

  1 O s       :     3.767038  s :     3.767038
      pz      :     1.581625  p :     4.548617
      px      :     1.367276
      py      :     1.599716
      dz2     :     0.005763  d :     0.030530
      dxz     :     0.003224
      dyz     :     0.006592
      dx2y2   :     0.004081
      dxy     :     0.010869
      f0      :     0.000219  f :     0.001760
      f+1     :     0.000360
      f-1     :     0.000182
      f+2     :     0.000254
      f-2     :     0.000342
      f+3     :     0.000059
      f-3     :     0.000344

  2 O s       :     3.792999  s :     3.792999
      pz      :     1.462729  p :     4.461184
      px      :     1.668926
      py      :     1.329528
      dz2     :     0.004432  d :     0.030005
      dxz     :     0.001722
      dyz     :     0.008917
      dx2y2   :     0.007498
      dxy     :     0.007436
      f0      :     0.000116  f :     0.001845
      f+1     :     0.000025
      f-1     :     0.000426
      f+2     :     0.000321
      f-2     :     0.000197
      f+3     :     0.000395
      f-3     :     0.000364

  3 C s       :     3.057795  s :     3.057795
      pz      :     0.683409  p :     2.221854
      px      :     0.908662
      py      :     0.629783
      dz2     :     0.047164  d :     0.276099
      dxz     :     0.051479
      dyz     :     0.071867
      dx2y2   :     0.043302
      dxy     :     0.062287
      f0      :     0.006026  f :     0.027723
      f+1     :     0.003488
      f-1     :     0.004123
      f+2     :     0.004524
      f-2     :     0.002066
      f+3     :     0.004348
      f-3     :     0.003148

  4 C s       :     3.169998  s :     3.169998
      pz      :     0.679220  p :     2.207872
      px      :     0.859014
      py      :     0.669638
      dz2     :     0.055906  d :     0.284316
      dxz     :     0.053290
      dyz     :     0.068135
      dx2y2   :     0.047853
      dxy     :     0.059131
      f0      :     0.005468  f :     0.028095
      f+1     :     0.003387
      f-1     :     0.005257
      f+2     :     0.003773
      f-2     :     0.002847
      f+3     :     0.003278
      f-3     :     0.004085

  5 C s       :     3.105413  s :     3.105413
      pz      :     0.628284  p :     2.216505
      px      :     0.879242
      py      :     0.708979
      dz2     :     0.059088  d :     0.289498
      dxz     :     0.062287
      dyz     :     0.065053
      dx2y2   :     0.040808
      dxy     :     0.062262
      f0      :     0.004310  f :     0.027681
      f+1     :     0.004195
      f-1     :     0.007060
      f+2     :     0.003146
      f-2     :     0.002729
      f+3     :     0.002862
      f-3     :     0.003379

  6 C s       :     3.241271  s :     3.241271
      pz      :     0.715665  p :     2.462764
      px      :     0.853351
      py      :     0.893747
      dz2     :     0.032283  d :     0.149712
      dxz     :     0.046970
      dyz     :     0.021894
      dx2y2   :     0.023236
      dxy     :     0.025330
      f0      :     0.003859  f :     0.017617
      f+1     :     0.002780
      f-1     :     0.002259
      f+2     :     0.002944
      f-2     :     0.002618
      f+3     :     0.001812
      f-3     :     0.001345

  7 C s       :     3.098237  s :     3.098237
      pz      :     0.666391  p :     2.219163
      px      :     0.825862
      py      :     0.726910
      dz2     :     0.066218  d :     0.295356
      dxz     :     0.056195
      dyz     :     0.064493
      dx2y2   :     0.046681
      dxy     :     0.061769
      f0      :     0.004487  f :     0.027809
      f+1     :     0.002463
      f-1     :     0.005802
      f+2     :     0.003924
      f-2     :     0.005087
      f+3     :     0.003144
      f-3     :     0.002902

  8 C s       :     3.142862  s :     3.142862
      pz      :     0.658841  p :     2.226642
      px      :     0.843501
      py      :     0.724300
      dz2     :     0.066192  d :     0.282275
      dxz     :     0.049362
      dyz     :     0.064825
      dx2y2   :     0.054478
      dxy     :     0.047418
      f0      :     0.004828  f :     0.028164
      f+1     :     0.002372
      f-1     :     0.005934
      f+2     :     0.004000
      f-2     :     0.005203
      f+3     :     0.003297
      f-3     :     0.002531

  9 C s       :     3.023599  s :     3.023599
      pz      :     0.639189  p :     2.113494
      px      :     0.848217
      py      :     0.626088
      dz2     :     0.079831  d :     0.343373
      dxz     :     0.057283
      dyz     :     0.076592
      dx2y2   :     0.063880
      dxy     :     0.065788
      f0      :     0.005352  f :     0.040331
      f+1     :     0.002973
      f-1     :     0.009886
      f+2     :     0.005682
      f-2     :     0.007788
      f+3     :     0.004525
      f-3     :     0.004125

 10 F s       :     3.915196  s :     3.915196
      pz      :     1.893313  p :     5.244420
      px      :     1.897081
      py      :     1.454026
      dz2     :     0.002286  d :     0.016237
      dxz     :     0.000262
      dyz     :     0.003189
      dx2y2   :     0.006332
      dxy     :     0.004167
      f0      :     0.000056  f :     0.000704
      f+1     :     0.000015
      f-1     :     0.000140
      f+2     :     0.000083
      f-2     :     0.000017
      f+3     :     0.000177
      f-3     :     0.000216

 11 F s       :     3.913501  s :     3.913501
      pz      :     1.506427  p :     5.243233
      px      :     1.868314
      py      :     1.868491
      dz2     :     0.006777  d :     0.016318
      dxz     :     0.004430
      dyz     :     0.003768
      dx2y2   :     0.000651
      dxy     :     0.000691
      f0      :     0.000224  f :     0.000719
      f+1     :     0.000195
      f-1     :     0.000171
      f+2     :     0.000054
      f-2     :     0.000064
      f+3     :     0.000006
      f-3     :     0.000005

 12 F s       :     3.918412  s :     3.918412
      pz      :     1.882265  p :     5.239831
      px      :     1.865136
      py      :     1.492430
      dz2     :     0.002254  d :     0.016398
      dxz     :     0.000543
      dyz     :     0.003475
      dx2y2   :     0.005439
      dxy     :     0.004687
      f0      :     0.000067  f :     0.000707
      f+1     :     0.000022
      f-1     :     0.000121
      f+2     :     0.000083
      f-2     :     0.000052
      f+3     :     0.000195
      f-3     :     0.000167

 13 F s       :     3.917138  s :     3.917138
      pz      :     1.506745  p :     5.241000
      px      :     1.840468
      py      :     1.893787
      dz2     :     0.006900  d :     0.016355
      dxz     :     0.005274
      dyz     :     0.002892
      dx2y2   :     0.000714
      dxy     :     0.000574
      f0      :     0.000229  f :     0.000701
      f+1     :     0.000248
      f-1     :     0.000103
      f+2     :     0.000060
      f-2     :     0.000051
      f+3     :     0.000005
      f-3     :     0.000005

 14 F s       :     3.914961  s :     3.914961
      pz      :     1.833165  p :     5.248257
      px      :     1.877864
      py      :     1.537229
      dz2     :     0.001910  d :     0.015481
      dxz     :     0.000926
      dyz     :     0.004516
      dx2y2   :     0.004426
      dxy     :     0.003703
      f0      :     0.000075  f :     0.000667
      f+1     :     0.000013
      f-1     :     0.000100
      f+2     :     0.000135
      f-2     :     0.000086
      f+3     :     0.000135
      f-3     :     0.000122

 15 F s       :     3.920131  s :     3.920131
      pz      :     1.472845  p :     5.239501
      px      :     1.885406
      py      :     1.881250
      dz2     :     0.007663  d :     0.016256
      dxz     :     0.004204
      dyz     :     0.003452
      dx2y2   :     0.000406
      dxy     :     0.000531
      f0      :     0.000287  f :     0.000695
      f+1     :     0.000188
      f-1     :     0.000148
      f+2     :     0.000028
      f-2     :     0.000040
      f+3     :     0.000002
      f-3     :     0.000003

 16 F s       :     3.919416  s :     3.919416
      pz      :     1.565551  p :     5.202350
      px      :     1.894183
      py      :     1.742616
      dz2     :     0.006094  d :     0.018245
      dxz     :     0.003294
      dyz     :     0.006004
      dx2y2   :     0.001586
      dxy     :     0.001267
      f0      :     0.000174  f :     0.000771
      f+1     :     0.000094
      f-1     :     0.000245
      f+2     :     0.000122
      f-2     :     0.000104
      f+3     :     0.000017
      f-3     :     0.000015

 17 F s       :     3.918009  s :     3.918009
      pz      :     1.779634  p :     5.237545
      px      :     1.897280
      py      :     1.560631
      dz2     :     0.002076  d :     0.016161
      dxz     :     0.001120
      dyz     :     0.005796
      dx2y2   :     0.004404
      dxy     :     0.002764
      f0      :     0.000076  f :     0.000695
      f+1     :     0.000005
      f-1     :     0.000135
      f+2     :     0.000199
      f-2     :     0.000082
      f+3     :     0.000082
      f-3     :     0.000115

 18 F s       :     3.915955  s :     3.915955
      pz      :     1.575047  p :     5.239690
      px      :     1.773961
      py      :     1.890682
      dz2     :     0.005107  d :     0.016015
      dxz     :     0.005959
      dyz     :     0.002585
      dx2y2   :     0.001411
      dxy     :     0.000952
      f0      :     0.000131  f :     0.000691
      f+1     :     0.000264
      f-1     :     0.000076
      f+2     :     0.000119
      f-2     :     0.000074
      f+3     :     0.000016
      f-3     :     0.000011

 19 F s       :     3.915929  s :     3.915929
      pz      :     1.780531  p :     5.238928
      px      :     1.892249
      py      :     1.566147
      dz2     :     0.002099  d :     0.016383
      dxz     :     0.001151
      dyz     :     0.005842
      dx2y2   :     0.004375
      dxy     :     0.002916
      f0      :     0.000077  f :     0.000708
      f+1     :     0.000006
      f-1     :     0.000137
      f+2     :     0.000196
      f-2     :     0.000090
      f+3     :     0.000085
      f-3     :     0.000117

 20 F s       :     3.916817  s :     3.916817
      pz      :     1.566878  p :     5.236216
      px      :     1.777665
      py      :     1.891673
      dz2     :     0.005422  d :     0.016490
      dxz     :     0.005989
      dyz     :     0.002722
      dx2y2   :     0.001402
      dxy     :     0.000956
      f0      :     0.000146  f :     0.000713
      f+1     :     0.000269
      f-1     :     0.000082
      f+2     :     0.000117
      f-2     :     0.000073
      f+3     :     0.000015
      f-3     :     0.000010

 21 F s       :     3.911484  s :     3.911484
      pz      :     1.764462  p :     5.226733
      px      :     1.877573
      py      :     1.584697
      dz2     :     0.002128  d :     0.016683
      dxz     :     0.001481
      dyz     :     0.006043
      dx2y2   :     0.004118
      dxy     :     0.002914
      f0      :     0.000084  f :     0.000763
      f+1     :     0.000011
      f-1     :     0.000146
      f+2     :     0.000206
      f-2     :     0.000111
      f+3     :     0.000090
      f-3     :     0.000115

 22 F s       :     3.911181  s :     3.911181
      pz      :     1.756975  p :     5.226672
      px      :     1.857481
      py      :     1.612216
      dz2     :     0.002149  d :     0.016604
      dxz     :     0.001780
      dyz     :     0.005899
      dx2y2   :     0.003725
      dxy     :     0.003050
      f0      :     0.000084  f :     0.000760
      f+1     :     0.000018
      f-1     :     0.000145
      f+2     :     0.000185
      f-2     :     0.000136
      f+3     :     0.000093
      f-3     :     0.000098

 23 F s       :     3.911251  s :     3.911251
      pz      :     1.590581  p :     5.226219
      px      :     1.745761
      py      :     1.889877
      dz2     :     0.004945  d :     0.016728
      dxz     :     0.006484
      dyz     :     0.002432
      dx2y2   :     0.001741
      dxy     :     0.001126
      f0      :     0.000128  f :     0.000766
      f+1     :     0.000292
      f-1     :     0.000071
      f+2     :     0.000148
      f-2     :     0.000087
      f+3     :     0.000023
      f-3     :     0.000015

 24 H s       :     0.576475  s :     0.576475
      pz      :     0.011955  p :     0.043136
      px      :     0.018370
      py      :     0.012811


SPIN
  0 C s       :     0.000245  s :     0.000245
      pz      :    -0.000023  p :     0.000069
      px      :    -0.000077
      py      :     0.000170
      dz2     :    -0.000006  d :     0.000017
      dxz     :     0.000006
      dyz     :     0.000014
      dx2y2   :    -0.000004
      dxy     :     0.000007
      f0      :     0.000000  f :     0.000002
      f+1     :     0.000000
      f-1     :    -0.000000
      f+2     :     0.000000
      f-2     :     0.000000
      f+3     :     0.000001
      f-3     :     0.000000

  1 O s       :    -0.000036  s :    -0.000036
      pz      :     0.000013  p :    -0.000013
      px      :    -0.000020
      py      :    -0.000006
      dz2     :    -0.000000  d :     0.000002
      dxz     :    -0.000000
      dyz     :     0.000001
      dx2y2   :     0.000000
      dxy     :     0.000001
      f0      :     0.000000  f :     0.000000
      f+1     :     0.000000
      f-1     :     0.000000
      f+2     :     0.000000
      f-2     :     0.000000
      f+3     :     0.000000
      f-3     :     0.000000

  2 O s       :     0.000012  s :     0.000012
      pz      :     0.000280  p :     0.000343
      px      :    -0.000028
      py      :     0.000091
      dz2     :    -0.000000  d :    -0.000001
      dxz     :    -0.000000
      dyz     :    -0.000001
      dx2y2   :    -0.000000
      dxy     :     0.000001
      f0      :    -0.000000  f :    -0.000000
      f+1     :    -0.000000
      f-1     :    -0.000000
      f+2     :    -0.000000
      f-2     :    -0.000000
      f+3     :     0.000000
      f-3     :     0.000000

  3 C s       :    -0.000087  s :    -0.000087
      pz      :     0.000294  p :     0.001136
      px      :     0.000235
      py      :     0.000607
      dz2     :    -0.000009  d :     0.000124
      dxz     :     0.000015
      dyz     :     0.000020
      dx2y2   :     0.000084
      dxy     :     0.000014
      f0      :    -0.000000  f :     0.000008
      f+1     :    -0.000000
      f-1     :     0.000001
      f+2     :     0.000002
      f-2     :     0.000004
      f+3     :     0.000002
      f-3     :     0.000001

  4 C s       :    -0.002015  s :    -0.002015
      pz      :     0.000389  p :     0.000774
      px      :    -0.003803
      py      :     0.004188
      dz2     :    -0.000062  d :     0.000057
      dxz     :    -0.000109
      dyz     :    -0.000042
      dx2y2   :     0.000146
      dxy     :     0.000124
      f0      :    -0.000001  f :     0.000042
      f+1     :    -0.000000
      f-1     :     0.000002
      f+2     :     0.000004
      f-2     :    -0.000003
      f+3     :     0.000037
      f-3     :     0.000004

  5 C s       :    -0.006917  s :    -0.006917
      pz      :    -0.000347  p :    -0.004563
      px      :    -0.018453
      py      :     0.014237
      dz2     :     0.002515  d :     0.016997
      dxz     :     0.002270
      dyz     :    -0.000589
      dx2y2   :     0.005105
      dxy     :     0.007697
      f0      :    -0.000005  f :     0.001569
      f+1     :     0.000528
      f-1     :     0.000096
      f+2     :     0.000434
      f-2     :     0.000071
      f+3     :     0.000249
      f-3     :     0.000196

  6 C s       :     0.045237  s :     0.045237
      pz      :     0.214924  p :     0.788172
      px      :     0.029438
      py      :     0.543811
      dz2     :     0.001497  d :     0.003898
      dxz     :     0.001526
      dyz     :     0.000225
      dx2y2   :    -0.000590
      dxy     :     0.001241
      f0      :    -0.000157  f :    -0.001885
      f+1     :    -0.000016
      f-1     :    -0.000598
      f+2     :    -0.000390
      f-2     :    -0.000328
      f+3     :    -0.000340
      f-3     :    -0.000055

  7 C s       :    -0.014258  s :    -0.014258
      pz      :    -0.006832  p :    -0.034342
      px      :    -0.023710
      py      :    -0.003799
      dz2     :    -0.000206  d :     0.022775
      dxz     :     0.008709
      dyz     :     0.001645
      dx2y2   :     0.000019
      dxy     :     0.012608
      f0      :     0.000159  f :     0.001314
      f+1     :     0.000135
      f-1     :     0.000062
      f+2     :     0.000128
      f-2     :     0.000018
      f+3     :     0.000091
      f-3     :     0.000721

  8 C s       :     0.001352  s :     0.001352
      pz      :     0.006438  p :     0.021972
      px      :     0.004209
      py      :     0.011325
      dz2     :     0.000200  d :     0.004123
      dxz     :     0.001213
      dyz     :     0.000085
      dx2y2   :     0.002268
      dxy     :     0.000357
      f0      :    -0.000005  f :    -0.000014
      f+1     :    -0.000007
      f-1     :    -0.000007
      f+2     :     0.000015
      f-2     :    -0.000002
      f+3     :    -0.000010
      f-3     :     0.000002

  9 C s       :     0.001167  s :     0.001167
      pz      :    -0.000042  p :     0.002788
      px      :     0.002172
      py      :     0.000658
      dz2     :    -0.000011  d :     0.000409
      dxz     :     0.000137
      dyz     :     0.000059
      dx2y2   :     0.000024
      dxy     :     0.000199
      f0      :     0.000000  f :     0.000054
      f+1     :     0.000002
      f-1     :    -0.000000
      f+2     :     0.000014
      f-2     :     0.000007
      f+3     :    -0.000000
      f-3     :     0.000031

 10 F s       :    -0.000056  s :    -0.000056
      pz      :    -0.000001  p :     0.000007
      px      :     0.000017
      py      :    -0.000009
      dz2     :     0.000000  d :     0.000005
      dxz     :     0.000001
      dyz     :     0.000001
      dx2y2   :     0.000000
      dxy     :     0.000002
      f0      :     0.000000  f :     0.000000
      f+1     :     0.000000
      f-1     :    -0.000000
      f+2     :     0.000000
      f-2     :     0.000000
      f+3     :     0.000000
      f-3     :    -0.000000

 11 F s       :     0.000006  s :     0.000006
      pz      :    -0.000005  p :     0.000083
      px      :     0.000052
      py      :     0.000036
      dz2     :     0.000000  d :     0.000001
      dxz     :    -0.000000
      dyz     :     0.000000
      dx2y2   :     0.000001
      dxy     :    -0.000000
      f0      :     0.000000  f :     0.000000
      f+1     :    -0.000000
      f-1     :    -0.000000
      f+2     :     0.000000
      f-2     :    -0.000000
      f+3     :     0.000000
      f-3     :     0.000000

 12 F s       :     0.000633  s :     0.000633
      pz      :    -0.000036  p :     0.000418
      px      :     0.000352
      py      :     0.000102
      dz2     :     0.000015  d :     0.000065
      dxz     :    -0.000001
      dyz     :     0.000002
      dx2y2   :     0.000049
      dxy     :    -0.000001
      f0      :     0.000000  f :     0.000002
      f+1     :     0.000000
      f-1     :     0.000000
      f+2     :     0.000000
      f-2     :    -0.000000
      f+3     :    -0.000000
      f-3     :     0.000002

 13 F s       :     0.000048  s :     0.000048
      pz      :    -0.000112  p :     0.001500
      px      :     0.000923
      py      :     0.000689
      dz2     :     0.000006  d :     0.000011
      dxz     :    -0.000001
      dyz     :     0.000004
      dx2y2   :     0.000001
      dxy     :     0.000001
      f0      :     0.000000  f :     0.000000
      f+1     :    -0.000000
      f-1     :     0.000000
      f+2     :     0.000000
      f-2     :     0.000000
      f+3     :     0.000000
      f-3     :    -0.000000

 14 F s       :     0.000078  s :     0.000078
      pz      :    -0.000129  p :     0.029676
      px      :     0.010125
      py      :     0.019679
      dz2     :    -0.000003  d :    -0.000005
      dxz     :     0.000026
      dyz     :     0.000003
      dx2y2   :    -0.000000
[...]
 11:     64.77   0.000209    1.05  0.001005  (-0.014732 -0.017227 -0.022156)
 12:     71.62   0.000022    0.11  0.000096  (-0.005000 -0.001148 -0.008367)
 13:     77.76   0.000027    0.14  0.000107  (-0.001628 -0.008095 -0.006259)
 14:     98.80   0.000043    0.21  0.000134  ( 0.003878 -0.003534 -0.010336)
 15:    126.57   0.000198    1.00  0.000488  (-0.009385 -0.012840  0.015332)
 16:    147.99   0.000458    2.31  0.000966  (-0.026263  0.007851 -0.014638)
 17:    185.70   0.000498    2.52  0.000836  (-0.015297  0.004851  0.024059)
 18:    191.07   0.000309    1.56  0.000505  (-0.012642 -0.004362  0.018048)
 19:    201.74   0.001263    6.38  0.001954  (-0.011960  0.019537  0.037804)
 20:    208.48   0.001082    5.47  0.001620  ( 0.024874 -0.025484  0.018745)
 21:    223.69   0.000170    0.86  0.000237  ( 0.001301  0.000355 -0.015334)
 22:    227.54   0.000010    0.05  0.000014  (-0.000546 -0.003143  0.001893)
 23:    241.69   0.000080    0.40  0.000103  (-0.002648  0.003900  0.008990)
 24:    262.77   0.000424    2.14  0.000504  ( 0.018399  0.012491 -0.002996)
 25:    281.75   0.000967    4.89  0.001071  (-0.029706  0.013490  0.002509)
 26:    286.19   0.000301    1.52  0.000329  ( 0.001785 -0.013160 -0.012337)
 27:    307.97   0.000007    0.03  0.000007  (-0.001074  0.001871  0.001460)
 28:    328.88   0.000012    0.06  0.000012  ( 0.002752 -0.001197 -0.001588)
 29:    340.70   0.000273    1.38  0.000250  ( 0.013255  0.005503  0.006672)
 30:    350.76   0.000318    1.61  0.000283  ( 0.006368 -0.007234 -0.013788)
 31:    366.50   0.000028    0.14  0.000024  (-0.004827  0.000450  0.000767)
 32:    367.96   0.000015    0.08  0.000013  (-0.001370 -0.000616  0.003217)
 33:    375.99   0.000717    3.62  0.000595  (-0.014875 -0.018509 -0.005558)
 34:    391.64   0.000515    2.60  0.000410  (-0.014147  0.011879 -0.008289)
 35:    440.42   0.000214    1.08  0.000152  ( 0.007964  0.002178 -0.009151)
 36:    465.49   0.000890    4.50  0.000597  ( 0.020722  0.012934  0.000295)
 37:    507.12   0.003448   17.43  0.002122  (-0.033103 -0.022322  0.022976)
 38:    516.92   0.002637   13.33  0.001592  ( 0.025286 -0.007848 -0.029848)
 39:    528.95   0.002509   12.68  0.001481  (-0.022289  0.029246  0.011333)
 40:    541.56   0.005467   27.63  0.003150  (-0.054063 -0.014509  0.004105)
 41:    567.57   0.013973   70.62  0.007683  ( 0.044504 -0.035216  0.066799)
 42:    581.54   0.010942   55.30  0.005872  (-0.073720 -0.019455  0.007642)
 43:    590.09   0.004320   21.83  0.002285  ( 0.008362 -0.024174  0.040376)
 44:    604.37   0.003462   17.49  0.001787  (-0.015206  0.022973 -0.032070)
 45:    624.95   0.029197  147.55  0.014579  ( 0.117901 -0.025988  0.001834)
 46:    633.52   0.033777  170.69  0.016638  ( 0.106057 -0.018415  0.071069)
 47:    675.99   0.006753   34.13  0.003117  (-0.050116  0.007953  0.023293)
 48:    694.10   0.000802    4.05  0.000361  ( 0.004884  0.016487 -0.008064)
 49:    717.79   0.014083   71.17  0.006123  ( 0.072540 -0.017356 -0.023652)
 50:    756.28   0.006311   31.89  0.002604  ( 0.007904  0.000736 -0.050410)
 51:    777.61   0.007340   37.09  0.002946  (-0.041072 -0.009444  0.034200)
 52:    868.26   0.023094  116.71  0.008300  ( 0.021524 -0.060076 -0.065022)
 53:    993.53   0.007131   36.03  0.002240  (-0.035122  0.007204  0.030890)
 54:   1045.81   0.054692  276.39  0.016320  ( 0.055096 -0.109879 -0.034799)
 55:   1097.32   0.041620  210.33  0.011836  (-0.088695 -0.063004  0.000082)
 56:   1105.12   0.022810  115.27  0.006441  ( 0.034999  0.034691  0.063346)
 57:   1121.81   0.006458   32.63  0.001796  (-0.017927  0.029371 -0.024746)
 58:   1132.87   0.088186  445.66  0.024292  (-0.060290 -0.016602  0.142764)
 59:   1141.16   0.075666  382.39  0.020692  ( 0.048218 -0.128245 -0.043819)
 60:   1144.07   0.012059   60.94  0.003289  (-0.011785 -0.004023  0.055984)
 61:   1150.34   0.074143  374.69  0.020113  (-0.060731  0.101220 -0.078612)
 62:   1153.14   0.076656  387.39  0.020745  (-0.031795 -0.017574  0.139373)
 63:   1158.20   0.114688  579.59  0.030901  (-0.029229 -0.161943 -0.061818)
 64:   1184.33   0.082620  417.53  0.021770  (-0.030368  0.071608 -0.125379)
 65:   1192.87   0.012197   61.64  0.003191  ( 0.039793 -0.016822 -0.036390)
 66:   1224.12   0.004927   24.90  0.001256  (-0.017435 -0.027653 -0.013683)
 67:   1233.21   0.003992   20.18  0.001010  (-0.009224  0.025011  0.017311)
 68:   1251.50   0.017275   87.30  0.004308  (-0.014318  0.040091 -0.049952)
 69:   1309.96   0.018337   92.67  0.004368  ( 0.040707 -0.014334 -0.050059)
 70:   1328.54   0.027714  140.05  0.006510  ( 0.080421 -0.005274  0.003791)
 71:   1384.46   0.016603   83.90  0.003742  (-0.055436  0.012499 -0.022648)
 72:   1407.51   0.011535   58.29  0.002557  ( 0.029736 -0.014052 -0.038415)
 73:   1822.08   0.093149  470.74  0.015953  ( 0.000128 -0.109422 -0.063089)
 74:   3610.76   0.051445  259.98  0.004446  (-0.059687 -0.014941  0.025699)

* The epsilon (eps) is given for a Dirac delta lineshape.
** The dipole moment derivative (T) already includes vibrational overlap.

The first frequency considered to be a vibration is 7
The total number of vibrations considered is 68


--------------------------
THERMOCHEMISTRY AT 298.15K
--------------------------

Temperature         ...   298.15 K
Pressure            ...     1.00 atm
Total Mass          ...   395.07 AMU
Quasi RRHO          ...     True
Cut-Off Frequency   ...     1.00 cm^-1

Throughout the following assumptions are being made:
  (1) The electronic state is orbitally nondegenerate
      but the spin degeneracy is treated
  (2) There are no thermally accessible electronically excited states
  (3) Hindered rotations indicated by low frequency modes are not
      treated as such but are treated as vibrations and this may
      cause some error
  (4) All equations used are the standard statistical mechanics
      equations for an ideal gas
  (5) All vibrations are strictly harmonic

freq.      17.57  E(vib)   ...       0.57 
freq.      31.09  E(vib)   ...       0.55 
freq.      44.26  E(vib)   ...       0.53 
freq.      53.73  E(vib)   ...       0.52 
freq.      64.77  E(vib)   ...       0.50 
freq.      71.62  E(vib)   ...       0.50 
freq.      77.76  E(vib)   ...       0.49 
freq.      98.80  E(vib)   ...       0.46 
freq.     126.57  E(vib)   ...       0.43 
freq.     147.99  E(vib)   ...       0.41 
freq.     185.70  E(vib)   ...       0.37 
freq.     191.07  E(vib)   ...       0.36 
freq.     201.74  E(vib)   ...       0.35 
freq.     208.48  E(vib)   ...       0.34 
freq.     223.69  E(vib)   ...       0.33 
freq.     227.54  E(vib)   ...       0.33 
freq.     241.69  E(vib)   ...       0.31 
freq.     262.77  E(vib)   ...       0.29 
freq.     281.75  E(vib)   ...       0.28 
freq.     286.19  E(vib)   ...       0.27 
freq.     307.97  E(vib)   ...       0.26 
freq.     328.88  E(vib)   ...       0.24 
freq.     340.70  E(vib)   ...       0.23 
freq.     350.76  E(vib)   ...       0.23 
freq.     366.50  E(vib)   ...       0.22 
freq.     367.96  E(vib)   ...       0.21 
freq.     375.99  E(vib)   ...       0.21 
freq.     391.64  E(vib)   ...       0.20 
freq.     440.42  E(vib)   ...       0.17 
freq.     465.49  E(vib)   ...       0.16 
freq.     507.12  E(vib)   ...       0.14 
freq.     516.92  E(vib)   ...       0.13 
freq.     528.95  E(vib)   ...       0.13 
freq.     541.56  E(vib)   ...       0.12 
freq.     567.57  E(vib)   ...       0.11 
freq.     581.54  E(vib)   ...       0.11 
freq.     590.09  E(vib)   ...       0.10 
freq.     604.37  E(vib)   ...       0.10 
freq.     624.95  E(vib)   ...       0.09 
freq.     633.52  E(vib)   ...       0.09 
freq.     675.99  E(vib)   ...       0.08 
freq.     694.10  E(vib)   ...       0.07 
freq.     717.79  E(vib)   ...       0.07 
freq.     756.28  E(vib)   ...       0.06 
freq.     777.61  E(vib)   ...       0.05 
freq.     868.26  E(vib)   ...       0.04 
freq.     993.53  E(vib)   ...       0.02 
freq.    1045.81  E(vib)   ...       0.02 
freq.    1097.32  E(vib)   ...       0.02 
freq.    1105.12  E(vib)   ...       0.02 
freq.    1121.81  E(vib)   ...       0.01 
freq.    1132.87  E(vib)   ...       0.01 
freq.    1141.16  E(vib)   ...       0.01 
freq.    1144.07  E(vib)   ...       0.01 
freq.    1150.34  E(vib)   ...       0.01 
freq.    1153.14  E(vib)   ...       0.01 
freq.    1158.20  E(vib)   ...       0.01 
freq.    1184.33  E(vib)   ...       0.01 
freq.    1192.87  E(vib)   ...       0.01 
freq.    1224.12  E(vib)   ...       0.01 
freq.    1233.21  E(vib)   ...       0.01 
freq.    1251.50  E(vib)   ...       0.01 
freq.    1309.96  E(vib)   ...       0.01 
freq.    1328.54  E(vib)   ...       0.01 
freq.    1384.46  E(vib)   ...       0.00 
freq.    1407.51  E(vib)   ...       0.00 
freq.    1822.08  E(vib)   ...       0.00 
freq.    3610.76  E(vib)   ...       0.00 

------------
INNER ENERGY
------------

The inner energy is: U= E(el) + E(ZPE) + E(vib) + E(rot) + E(trans)
    E(el)   - is the total energy from the electronic structure calculation
              = E(kin-el) + E(nuc-el) + E(el-el) + E(nuc-nuc)
    E(ZPE)  - the the zero temperature vibrational energy from the frequency calculation
    E(vib)  - the the finite temperature correction to E(ZPE) due to population
              of excited vibrational states
    E(rot)  - is the rotational thermal energy
    E(trans)- is the translational thermal energy

Summary of contributions to the inner energy U:
Electronic energy                ...  -1853.73688102 Eh
Zero point energy                ...      0.10516114 Eh      65.99 kcal/mol
Thermal vibrational correction   ...      0.01919228 Eh      12.04 kcal/mol
Thermal rotational correction    ...      0.00141627 Eh       0.89 kcal/mol
Thermal translational correction ...      0.00141627 Eh       0.89 kcal/mol
-----------------------------------------------------------------------
Total thermal energy                  -1853.60969505 Eh


Summary of corrections to the electronic energy:
(perhaps to be used in another calculation)
Total thermal correction                  0.02202483 Eh      13.82 kcal/mol
Non-thermal (ZPE) correction              0.10516114 Eh      65.99 kcal/mol
-----------------------------------------------------------------------
Total correction                          0.12718597 Eh      79.81 kcal/mol


--------
ENTHALPY
--------

The enthalpy is H = U + kB*T
                kB is Boltzmann's constant
Total thermal energy              ...  -1853.60969505 Eh 
Thermal Enthalpy correction       ...      0.00094421 Eh       0.59 kcal/mol
-----------------------------------------------------------------------
Total Enthalpy                    ...  -1853.60875084 Eh


Note: Only C1 symmetry has been detected, increase convergence thresholds 
      if your molecule has a higher symmetry. Symmetry factor of 1.0 is   
      used for the rotational entropy correction. 
 

Note: Rotational entropy computed according to Herzberg 
Infrared and Raman Spectra, Chapter V,1, Van Nostrand Reinhold, 1945 
Point Group:  C1, Symmetry Number:   1  
Rotational constants in cm-1:     0.018862     0.004218     0.004108 

Vibrational entropy computed according to the QRRHO of S. Grimme
Chem.Eur.J. 2012 18 9955 using a reference frequency of 100.0 cm-1


-------
ENTROPY
-------

The entropy contributions are T*S = T*(S(el)+S(vib)+S(rot)+S(trans))
     S(el)   - electronic entropy
     S(vib)  - vibrational entropy
     S(rot)  - rotational entropy
     S(trans)- translational entropy
The entropies will be listed as multiplied by the temperature to get
units of energy

Electronic entropy                ...      0.00065446 Eh      0.41 kcal/mol
Vibrational entropy               ...      0.03431233 Eh     21.53 kcal/mol
Rotational entropy                ...      0.01656089 Eh     10.39 kcal/mol
Translational entropy             ...      0.02081703 Eh     13.06 kcal/mol
-----------------------------------------------------------------------
Final entropy term                ...      0.07234471 Eh     45.40 kcal/mol

In case the symmetry of your molecule has not been determined correctly
or in case you have a reason to use a different symmetry number we print 
out the resulting rotational entropy values for sn=1,12:

 non-linear molecules -----------------------------------
|  sn= 1 | S(rot)=       0.01656089 Eh     10.39 kcal/mol|
|  sn= 2 | S(rot)=       0.01590643 Eh      9.98 kcal/mol|
|  sn= 3 | S(rot)=       0.01552360 Eh      9.74 kcal/mol|
|  sn= 4 | S(rot)=       0.01525197 Eh      9.57 kcal/mol|
|  sn= 5 | S(rot)=       0.01504128 Eh      9.44 kcal/mol|
|  sn= 6 | S(rot)=       0.01486914 Eh      9.33 kcal/mol|
|  sn= 7 | S(rot)=       0.01472359 Eh      9.24 kcal/mol|
|  sn= 8 | S(rot)=       0.01459752 Eh      9.16 kcal/mol|
|  sn= 9 | S(rot)=       0.01448631 Eh      9.09 kcal/mol|
|  sn=10 | S(rot)=       0.01438683 Eh      9.03 kcal/mol|
|  sn=11 | S(rot)=       0.01429684 Eh      8.97 kcal/mol|
|  sn=12 | S(rot)=       0.01421468 Eh      8.92 kcal/mol|
 linear molecules ---------------------------------------
|  Dinfh | S(rot)=       0.01051384 Eh      6.60 kcal/mol|
|  Cinfv | S(rot)=       0.01116830 Eh      7.01 kcal/mol|
 --------------------------------------------------------


-------------------
GIBBS FREE ENERGY
-------------------

The Gibbs free energy is G = H - T*S

Total enthalpy                    ...  -1853.60875084 Eh 
Total entropy correction          ...     -0.07234471 Eh    -45.40 kcal/mol
-----------------------------------------------------------------------
Final Gibbs free energy         ...  -1853.68109555 Eh

For completeness - the Gibbs free energy minus the electronic energy
G-E(el)                           ...      0.05578547 Eh     35.01 kcal/mol


Maximum memory used throughout the entire PROP-calculation: 545.8 MB

--------------------------------
SUGGESTED CITATIONS FOR THIS RUN
--------------------------------

Below you find a list of papers that are relevant to this ORCA run
We neither can nor want to force you to cite these papers, but we appreciate if you do
You receive ORCA, which is the product of decades of hard work by many enthusiastic individuals, for free
The only thing we kindly ask in return is that you cite our papers,
We deeply appreciate it, if you show your appreciation for ORCA by not just citing the generic ORCA reference.

Please note that relegating all ORCA citations to the supporting information does *not* help us.
SI sections are not indexed - citations you put there will not count into any citation statistics
But we need these citations in order to attract the funding resources that allow us to do what we are doing

Therefore, if you are a happy ORCA user, please consider citing a few of the papers listed below in the main body of your paper

In addition to the list printed below, the program has created the file rf_mecn_freq_B3L_C5_P_B.bibtex that contains the list in bibtex format
You can import this file easily into all common literature databanks and citation aid programs


List of essential papers. We consider these as the minimum necessary citations

  1. Neese,F.
     Software update: the ORCA program system, version 5.0
     WIRES Comput. Molec. Sci., 2022 12(1)e1606
     doi.org/10.1002/wcms.1606

List of papers to cite with high priority. The work reported in these papers was absolutely
necessary for this run to complete.
Our perspective: the developers of density functionals and basis sets usually get cited in chemistry papers
Good! But without the algorithms to do something with them, the functionals or basis sets would not do anything.
Hence, in our opinion, the algorithm design and method developments papers are equally worthy of getting cited

  1. Neese,F.
     An improvement of the resolution of the identity approximation for the formation of the Coulomb matrix
     J. Comp. Chem., 2003 24(14)1740-1747
     doi.org/10.1002/jcc.10318
  2. Neese,F.; Wennmohs,F.; Hansen,A.; Becker,U.
     Efficient, approximate and parallel Hartree-Fock and hybrid DFT calculations. A 'chain-of-spheres' algorithm for the Hartree-Fock exchange
     Chem. Phys., 2009 356(1-3)98-109
     doi.org/10.1016/j.chemphys.2008.10.036
  3. Bykov,D.; Petrenko,T.; Izsak,R.; Kossmann,S.; Becker,U.; Valeev,E.; Neese,F.
     Efficient implementation of the analytic second derivatives of Hartree-Fock and hybrid DFT energies: a detailed analysis of different approximations
     Molec. Phys., 2015 113 1961-1977
     doi.org/10.1080/00268976.2015.1025114
  4. Garcia-Rates,M.; Neese,F.
     Efficient implementation of the analytical second derivatives of hartree-fock and hybrid DFT energies within the framework of the conductor-like polarizable continuum model
     J. Comput. Chem., 2019 40 1816-1828
     doi.org/10.1002/jcc.25833
  5. Garcia-Rates,M.; Neese,F.
     Effect of the Solute Cavity on the Solvation Energy and its Derivatives within the Framework of the Gaussian Charge Scheme
     J. Comput. Chem., 2020 41 922-939
     doi.org/10.1002/jcc.26139
  6. Helmich-Paris,B.; de Souza,B.; Neese,F.; Izsák,R.
     An improved chain of spheres for exchange algorithm
     J. Chem. Phys., 2021 155 104109
     doi.org/doi: 10.1063/5.0058766.
  7. Neese,F.
     The SHARK Integral Generation and Digestion System
     J. Comp. Chem., 2022  1-16
     doi.org/10.1002/jcc.26942
  8. Grimme,S.; Antony,J.; Ehrlich,S.; Krieg,H.
     A consistent and accurate ab initio parametrization of density functional dispersion correction (DFT-D) for the 94 elements H-Pu
     J. Chem. Phys., 2010 132 154104
     doi.org/10.1063/1.3382344
  9. Grimme,S.; Ehrlich,S.; Goerigk,L.
     Effect of the damping function in dispersion corrected density functional theory
     J. Comput. Chem., 2011 32(7)1456-1465
     doi.org/10.1002/jcc.21759

List of suggested additional citations. These are papers that are important in the 'surrounding' of 
of this run, or papers that preceded the highly important papers. If you like your results we are grateful for a citation.

  1. Izsak,R.; Neese,F.
     An overlap fitted chain of spheres exchange method
     J. Chem. Phys., 2011 135 144105
     doi.org/10.1063/1.3646921
  2. Izsak,R.; Hansen,A.; Neese,F.
     The resolution of identity and chain of spheres approximations for the LPNO-CCSD singles Fock term
     Molec. Phys., 2012 110 2413-2417
     doi.org/10.1080/00268976.2012.687466
  3. Neese,F.
     The ORCA program system
     WIRES Comput. Molec. Sci., 2012 2(1)73-78
     doi.org/10.1002/wcms.81
  4. Izsak,R.; Neese,F.; Klopper,W.
     Robust fitting techniques in the chain of spheres approximation to the Fock exchange: The role of the complementary space
     J. Chem. Phys., 2013 139 
     doi.org/10.1063/1.4819264
  5. Neese,F.
     Software update: the ORCA program system, version 4.0
     WIRES Comput. Molec. Sci., 2018 8(1)1-6
     doi.org/10.1002/wcms.1327
  6. Neese,F.; Wennmohs,F.; Becker,U.; Riplinger,C.
     The ORCA quantum chemistry program package
     J. Chem. Phys., 2020 152 Art. No. L224108
     doi.org/10.1063/5.0004608

List of optional additional citations

  1. Neese,F.
     Approximate second-order SCF convergence for spin unrestricted wavefunctions
     Chem. Phys. Lett., 2000 325(1-3)93-98
     doi.org/10.1016/s0009-2614(00)00662-x

Timings for individual modules:

Sum of individual times          ...     1209.474 sec (=  20.158 min)
Startup calculation              ...        4.560 sec (=   0.076 min)   0.4 %
SCF iterations                   ...       81.742 sec (=   1.362 min)   6.8 %
Property integrals               ...      264.856 sec (=   4.414 min)  21.9 %
SCF Response                     ...      565.780 sec (=   9.430 min)  46.8 %
Property calculations            ...      292.535 sec (=   4.876 min)  24.2 %
                             ****ORCA TERMINATED NORMALLY****
TOTAL RUN TIME: 0 days 0 hours 20 minutes 10 seconds 397 msec
