
                                 *****************
                                 * O   R   C   A *
                                 *****************

                                            #,                                       
                                            ###                                      
                                            ####                                     
                                            #####                                    
                                            ######                                   
                                           ########,                                 
                                     ,,################,,,,,                         
                               ,,#################################,,                 
                          ,,##########################################,,             
                       ,#########################################, ''#####,          
                    ,#############################################,,   '####,        
                  ,##################################################,,,,####,       
                ,###########''''           ''''###############################       
              ,#####''   ,,,,##########,,,,          '''####'''          '####       
            ,##' ,,,,###########################,,,                        '##       
           ' ,,###''''                  '''############,,,                           
         ,,##''                                '''############,,,,        ,,,,,,###''
      ,#''                                            '''#######################'''  
     '                                                          ''''####''''         
             ,#######,   #######,   ,#######,      ##                                
            ,#'     '#,  ##    ##  ,#'     '#,    #''#        ,####,   ,####,        
            ##       ##  ##   ,#'  ##            #'  '#       #'       #'  '#        
            ##       ##  #######   ##           ,######,      #####,   #    #        
            '#,     ,#'  ##    ##  '#,     ,#' ,#      #,     #,   #   #,  ,#        
             '#######'   ##     ##  '#######'  #'      '#     '####' # '####'        



                #########################################################
                #                        -***-                          #
                #          Department of theory and spectroscopy        #
                #                                                       #
                #                      Frank Neese                      #
                #                                                       #
                #     Directorship, Architecture, Infrastructure        #
                #                    SHARK, DRIVERS                     #
                #        Core code/Algorithms in most modules           #
                #                                                       #
                #        Max Planck Institute fuer Kohlenforschung      #
                #                Kaiser Wilhelm Platz 1                 #
                #                 D-45470 Muelheim/Ruhr                 #
                #                      Germany                          #
                #                                                       #
                #                  All rights reserved                  #
                #                        -***-                          #
                #########################################################


                         Program Version 6.0.1  -  RELEASE   -


 With contributions from (in alphabetic order):
[Max-Planck-Institut fuer Kohlenforschung]                               
  Daniel Aravena         : Magnetic Suceptibility                        
  Michael Atanasov       : Ab Initio Ligand Field Theory (pilot matlab implementation)
  Alexander A. Auer      : GIAO ZORA, VPT2 properties, NMR spectrum      
  Ute Becker             : All parallelization in ORCA, NUMFREQ, NUMCALC 
  Giovanni Bistoni       : ED, misc. LED, open-shell LED, HFLD           
  Martin Brehm           : Molecular dynamics                            
  Dmytro Bykov           : pre 5.0 version of the SCF Hessian            
  Marcos Casanova-Páez   : Triplet and SCS-CIS(D). UHF-(DLPNO)-IP/EA/STEOM-CCSD. UHF-CVS-IP/STEOM-CCSD   
  Vijay G. Chilkuri      : MRCI spin determinant printing, contributions to CSF-ICE 
  Pauline Colinet        : FMM embedding                                 
  Dipayan Datta          : RHF DLPNO-CCSD density                        
  Achintya Kumar Dutta   : EOM-CC, STEOM-CC                              
  Nicolas Foglia         : Exact transition moments, OPA infrastructure, MCD improvements    
  Dmitry Ganyushin       : Spin-Orbit,Spin-Spin,Magnetic field MRCI      
  Miquel Garcia-Rates    : C-PCM and meta-GGA Hessian, CCSD/C-PCM, Gaussian charge scheme 
  Tiago L. C. Gouveia    : GS-ROHF, GS-ROCIS                             
  Yang Guo               : DLPNO-NEVPT2, F12-NEVPT2, CIM, IAO-localization        
  Andreas Hansen         : Spin unrestricted coupled pair/coupled cluster methods 
  Ingolf Harden          : AUTO-CI MPn and infrastructure                
  Benjamin Helmich-Paris : MC-RPA, TRAH-(SCF,CASSCF), AVAS, COSX integrals, SCF dyn. polar. 
  Lee Huntington         : MR-EOM, pCC                                   
  Robert Izsak           : Overlap fitted RIJCOSX, COSX-SCS-MP3, EOM     
  Riya Kayal             : Wick's Theorem for AUTO-CI, AUTO-CI UHF-CCSDT 
  Emily Kempfer          : AUTO-CI, RHF CISDT and CCSDT                  
  Christian Kollmar      : KDIIS, OOCD, Brueckner-CCSD(T), CCSD density, CASPT2, CASPT2-K, improved NEVPT2 
  Axel Koslowski         : Symmetry handling                             
  Simone Kossmann        : meta-GGA functionals, TD-DFT gradient, OOMP2, (MP2 Hessian; deprecated post 5.0) 
  Lucas Lang             : DCDCAS                                        
  Marvin Lechner         : AUTO-CI (C++ implementation), FIC-MRCC        
  Spencer Leger          : CASSCF response                               
  Dagmar Lenk            : GEPOL surface, SMD, ORCA-2-JSON               
  Dimitrios Liakos       : Extrapolation schemes; Compound Job, initial MDCI parallelization 
  Dimitrios Manganas     : Further ROCIS development; embedding schemes. LFT, Crystal Embedding 
  Dimitrios Pantazis     : SARC Basis sets                               
  Anastasios Papadopoulos: AUTO-CI, single reference methods and gradients 
  Taras Petrenko         : pre 6.0 DFT Hessian and TD-DFT gradient, (ASA, deprecated), ECA, 1-Electron XAS/XES, NRVS 
  Peter Pinski           : DLPNO-MP2, DLPNO-MP2 Gradient                 
  Christoph Reimann      : Effective Core Potentials                     
  Marius Retegan         : Local ZFS, SOC                                
  Christoph Riplinger    : Optimizer, TS searches, QM/MM, DLPNO-CCSD(T), (RO)-DLPNO pert. Triples 
  Michael Roemelt        : Original ROCIS implementation                 
  Masaaki Saitow         : Open-shell DLPNO-CCSD energy and density      
  Barbara Sandhoefer     : DKH picture change effects                    
  Kantharuban Sivalingam : CASSCF convergence/infrastructure, NEVPT2 and variants, FIC-MRCI 
  Bernardo de Souza      : ESD, SOC TD-DFT                               
  Georgi L. Stoychev     : AutoAux, RI-MP2 NMR, DLPNO-MP2 response, X2C  
  Van Anh Tran           : RI-MP2 g-tensors                              
  Willem Van den Heuvel  : Paramagnetic NMR                              
  Zikuan Wang            : NOTCH, Electric field optimization            
  Frank Wennmohs         : Technical directorship and infrastructure     
  Hang Xu                : AUTO-CI-Response properties                   
                                                                         
[FACCTs GmbH]                                                            
  Markus Bursch, Miquel Garcia-Rates, Christoph Riplinger, Bernardo de Souza, Georgi L. Stoychev 
                                                                 
  APM, Basis sets (HGBS, AHGBS, def-TZVP (Ac-Lr), def2-XVPD (La-Lu)), CI-OPT, improved COSX, DLPNO-Multilevel,           
  DOCKER, DRACO, updates on ESD, GOAT, IRC, LR-CPCM, MBIS, meta-GGA TD-DFT gradient, ML-optimized integration grids, 
  MM, NACMEs, nearIR, NEB, NEB-TS, NL-DFT gradient (VV10), 2- and 3-layer-ONIOM, interface openCOSMO-RS, QMMM,   
  Crystal-QMMM, SF, symmetry and pop. for TD-DFT, r2SCAN hybrids, SOLVATOR                                   
                                                                         
[Other institutions]                                                     
  V. Asgeirsson          : NEB                                           
  Christoph Bannwarth    : sTDA-DFT, sTD-DFT, PBEh-3c, B97-3c, D3        
  Sebastian Ehlert       : rSCAN, r2SCAN, r2SCAN-3c, D4, dhf basis sets  
  Marvin Friede          : D4 for Fr, Ra, Ac-Lr                          
  Lars Goerigk           : TD-DFT with DH, B97 family of functionals     
  Stefan Grimme          : VdW corrections, initial TS optimization, DFT functionals, gCP, sTDA/sTD-DF 
  Waldemar Hujo          : DFT-NL                                        
  H. Jonsson             : NEB                                           
  Holger Kruse           : gCP                                           
  Marcel Mueller         : wB97X-3c, vDZP basis set                      
  Hagen Neugebauer       : wr2SCAN                                       
  Tobias Risthaus        : range-separated hybrid DFT                    
  Lukas Wittmann         : regularized MP2, r2SCAN double-hybrids, wr2SCAN        
                                                                         
We gratefully acknowledge several colleagues who have allowed us to      
interface, adapt or use parts of their codes:                            
  Ed Valeev, F. Pavosevic, A. Kumar             : LibInt (2-el integral package), F12 methods 
  Garnet Chan, S. Sharma, J. Yang, R. Olivares  : DMRG                   
  Ulf Ekstrom                                   : XCFun DFT Library      
  Mihaly Kallay                                 : mrcc  (arbitrary order and MRCC methods)
  Frank Weinhold                                : gennbo (NPA and NBO analysis)           
  Simon Mueller                                 : openCOSMO-RS                            
  Christopher J. Cramer and Donald G. Truhlar   : smd solvation model                     
  S Lehtola, MJT Oliveira, MAL Marques          : LibXC Library                           
  Liviu Ungur et al                             : ANISO software                          


 Your calculation uses the libint2 library for the computation of 2-el integrals
 For citations please refer to: http://libint.valeyev.net

 Your ORCA version has been built with support for libXC version: 6.2.2
 For citations please refer to: https://libxc.gitlab.io

 This ORCA versions uses:
   CBLAS   interface :  Fast vector & matrix operations
   LAPACKE interface :  Fast linear algebra routines
   SCALAPACK package :  Parallel linear algebra routines
   Shared memory     :  Shared parallel matrices
   BLAS/LAPACK       :  OpenBLAS 0.3.27  USE64BITINT DYNAMIC_ARCH NO_AFFINITY SkylakeX SINGLE_THREADED
        Core in use  :  SkylakeX
   Copyright (c) 2011-2014, The OpenBLAS Project


NOTE: MaxCore=8000 MB was set to SCF,MP2,MDCI,CIPSI,MRCI and CIS
      => If you want to overwrite this, your respective input block should be placed after the MaxCore statement
Your calculation utilizes the atom-pairwise dispersion correction
with the Becke-Johnson damping scheme (D3BJ)


Your calculation utilizes the SMD solvation module
Please cite in your paper:
A.V. Marenich, C.J. Cramer, D.G. Truhlar J. Phys. Chem. B, 113, (2009), 6378 

Warning: RI is on but no J-basis has been assigned. Assigning Def2/J (nothing to worry about!)
================================================================================

----- Orbital basis set information -----
Your calculation utilizes the basis: def2-TZVP
   F. Weigend and R. Ahlrichs, Phys. Chem. Chem. Phys. 7, 3297 (2005).

----- AuxJ basis set information -----
Your calculation utilizes the auxiliary basis: def2/J
   F. Weigend, Phys. Chem. Chem. Phys. 8, 1057 (2006).

================================================================================
                                        WARNINGS
                       Please study these warnings very carefully!
================================================================================


WARNING: your system is open-shell and RHF/RKS was chosen
  ===> : WILL SWITCH to UHF/UKS


================================================================================
                                       INPUT FILE
================================================================================
NAME = rf_mecn_freq_B3L_C8_P_B.inp
|  1> !B3LYP def2-TZVP freq d3 TightSCF SlowConv defgrid2
|  2>  
|  3> %pal
|  4> nprocs 20
|  5> end
|  6>  
|  7> %scf
|  8> MaxIter 1500
|  9> end
| 10>  
| 11> %maxcore 8000
| 12>  
| 13> !CPCM
| 14> %cpcm smd true
| 15> SMDsolvent "ACETONITRILE"
| 16> end
| 17>  
| 18> * xyz 0 2
| 19> 6        4.780959000     -0.038299000     -0.260507000
| 20> 8        5.143268000     -0.823006000     -1.262565000
| 21> 8        5.323821000      0.960531000      0.114375000
| 22> 6        3.485697000     -0.557234000      0.424000000
| 23> 6        2.219346000      0.131097000     -0.180186000
| 24> 6        0.863117000     -0.535756000      0.240174000
| 25> 6       -0.378445000      0.400299000      0.024312000
| 26> 6       -1.741923000     -0.374530000      0.025209000
| 27> 6       -2.992432000      0.541972000      0.223708000
| 28> 6       -4.278808000     -0.165351000     -0.157894000
| 29> 9        3.362717000     -1.896052000      0.286481000
| 30> 9        3.556731000     -0.264715000      1.737538000
| 31> 9        2.223394000      1.423465000      0.205077000
| 32> 9        2.318371000      0.084727000     -1.526054000
| 33> 9        0.697587000     -1.657182000     -0.489488000
| 34> 9        0.921296000     -0.873420000      1.542725000
| 35> 9       -0.394918000      1.321017000      1.007104000
| 36> 9       -0.247633000      1.031381000     -1.159519000
| 37> 9       -1.727213000     -1.293394000      1.012670000
| 38> 9       -1.872357000     -1.010725000     -1.156525000
| 39> 9       -2.873655000      1.641337000     -0.552222000
| 40> 9       -3.032776000      0.952414000      1.521213000
| 41> 9       -4.505286000     -1.309798000      0.462886000
| 42> 9       -5.343608000      0.614892000     -0.162307000
| 43> 1        5.943299000     -0.456340000     -1.689440000
| 44> *
| 45> 
| 46>                          ****END OF INPUT****
================================================================================

                       ****************************
                       * Single Point Calculation *
                       ****************************

---------------------------------
CARTESIAN COORDINATES (ANGSTROEM)
---------------------------------
  C      4.780959   -0.038299   -0.260507
  O      5.143268   -0.823006   -1.262565
  O      5.323821    0.960531    0.114375
  C      3.485697   -0.557234    0.424000
  C      2.219346    0.131097   -0.180186
  C      0.863117   -0.535756    0.240174
  C     -0.378445    0.400299    0.024312
  C     -1.741923   -0.374530    0.025209
  C     -2.992432    0.541972    0.223708
  C     -4.278808   -0.165351   -0.157894
  F      3.362717   -1.896052    0.286481
  F      3.556731   -0.264715    1.737538
  F      2.223394    1.423465    0.205077
  F      2.318371    0.084727   -1.526054
  F      0.697587   -1.657182   -0.489488
  F      0.921296   -0.873420    1.542725
  F     -0.394918    1.321017    1.007104
  F     -0.247633    1.031381   -1.159519
  F     -1.727213   -1.293394    1.012670
  F     -1.872357   -1.010725   -1.156525
  F     -2.873655    1.641337   -0.552222
  F     -3.032776    0.952414    1.521213
  F     -4.505286   -1.309798    0.462886
  F     -5.343608    0.614892   -0.162307
  H      5.943299   -0.456340   -1.689440

----------------------------
CARTESIAN COORDINATES (A.U.)
----------------------------
  NO LB      ZA    FRAG     MASS         X           Y           Z
   0 C     6.0000    0    12.011    9.034703   -0.072375   -0.492287
   1 O     8.0000    0    15.999    9.719368   -1.555256   -2.385902
   2 O     8.0000    0    15.999   10.060564    1.815141    0.216137
   3 C     6.0000    0    12.011    6.587013   -1.053020    0.801244
   4 C     6.0000    0    12.011    4.193956    0.247737   -0.340502
   5 C     6.0000    0    12.011    1.631055   -1.012432    0.453863
   6 C     6.0000    0    12.011   -0.715157    0.756455    0.045943
   7 C     6.0000    0    12.011   -3.291757   -0.707759    0.047638
   8 C     6.0000    0    12.011   -5.654877    1.024179    0.422747
   9 C     6.0000    0    12.011   -8.085775   -0.312468   -0.298376
  10 F     9.0000    0    18.998    6.354614   -3.583019    0.541371
  11 F     9.0000    0    18.998    6.721248   -0.500239    3.283471
  12 F     9.0000    0    18.998    4.201606    2.689959    0.387539
  13 F     9.0000    0    18.998    4.381086    0.160111   -2.883824
  14 F     9.0000    0    18.998    1.318248   -3.131620   -0.924998
  15 F     9.0000    0    18.998    1.740997   -1.650525    2.915328
  16 F     9.0000    0    18.998   -0.746287    2.496360    1.903151
  17 F     9.0000    0    18.998   -0.467959    1.949028   -2.191173
  18 F     9.0000    0    18.998   -3.263960   -2.444160    1.913669
  19 F     9.0000    0    18.998   -3.538242   -1.909993   -2.185516
  20 F     9.0000    0    18.998   -5.430421    3.101677   -1.043548
  21 F     9.0000    0    18.998   -5.731116    1.799802    2.874676
  22 F     9.0000    0    18.998   -8.513757   -2.475160    0.874728
  23 F     9.0000    0    18.998  -10.097956    1.161977   -0.306716
  24 H     1.0000    0     1.008   11.231207   -0.862358   -3.192579

--------------------------------
INTERNAL COORDINATES (ANGSTROEM)
--------------------------------
 C      0   0   0     0.000000000000     0.00000000     0.00000000
 O      1   0   0     1.323311423171     0.00000000     0.00000000
 O      1   2   0     1.197036772145   127.42930183     0.00000000
 C      1   2   3     1.554203016314   111.32667448   179.26690431
 C      4   1   2     1.562845207741   110.97523081   266.03845767
 C      5   4   1     1.568678601132   114.18725781   168.21816066
 C      6   5   4     1.569799848998   113.16975540   161.53029498
 C      7   6   5     1.568257963581   113.13772364   162.72375986
 C      8   7   6     1.563058069326   113.95043806   163.41280229
 C      9   8   7     1.516802269945   111.90823379   164.26634237
 F      4   1   2     1.351469271898   111.20997837    27.37800070
 F      4   1   2     1.347588687976   108.23333474   146.59574732
 F      5   4   1     1.348576661854   108.01117443   290.24963120
 F      5   4   1     1.350302484982   108.10604251    47.47468513
 F      6   5   4     1.348110933351   108.34525763   282.44525906
 F      6   5   4     1.346863348873   109.17072694    40.63743111
 F      7   6   5     1.346801065680   108.47998044   283.88296037
 F      7   6   5     1.347899145570   108.85630630    42.10661483
 F      8   7   6     1.348927967357   109.11641816    42.15083593
 F      8   7   6     1.348425879734   108.46367667   283.84791797
 F      9   8   7     1.350843715555   109.50580460    44.50129877
 F      9   8   7     1.361473282413   108.75374882   287.00961455
 F     10   9   8     1.321521482494   115.53119321    55.69486281
 F     10   9   8     1.320074866672   114.16071306   187.76094982
 H      2   1   3     0.978118511297   109.39774778   359.00310773

---------------------------
INTERNAL COORDINATES (A.U.)
---------------------------
 C      0   0   0     0.000000000000     0.00000000     0.00000000
 O      1   0   0     2.500696179682     0.00000000     0.00000000
 O      1   2   0     2.262071671588   127.42930183     0.00000000
 C      1   2   3     2.937018057347   111.32667448   179.26690431
 C      4   1   2     2.953349432341   110.97523081   266.03845767
 C      5   4   1     2.964372948283   114.18725781   168.21816066
 C      6   5   4     2.966491799676   113.16975540   161.53029498
 C      7   6   5     2.963578058508   113.13772364   162.72375986
 C      8   7   6     2.953751682442   113.95043806   163.41280229
 C      9   8   7     2.866340889505   111.90823379   164.26634237
 F      4   1   2     2.553906802298   111.20997837    27.37800070
 F      4   1   2     2.546573561445   108.23333474   146.59574732
 F      5   4   1     2.548440561502   108.01117443   290.24963120
 F      5   4   1     2.551701894570   108.10604251    47.47468513
 F      6   5   4     2.547560462178   108.34525763   282.44525906
 F      6   5   4     2.545202869186   109.17072694    40.63743111
 F      7   6   5     2.545085171009   108.47998044   283.88296037
 F      7   6   5     2.547160241274   108.85630630    42.10661483
 F      8   7   6     2.549104432691   109.11641816    42.15083593
 F      8   7   6     2.548155624590   108.46367667   283.84791797
 F      9   8   7     2.552724672127   109.50580460    44.50129877
 F      9   8   7     2.572811642412   108.75374882   287.00961455
 F     10   9   8     2.497313682007   115.53119321    55.69486281
 F     10   9   8     2.494579974282   114.16071306   187.76094982
 H      2   1   3     1.848376112870   109.39774778   359.00310773

---------------------
BASIS SET INFORMATION
---------------------
There are 4 groups of distinct atoms

 Group   1 Type C   : 11s6p2d1f contracted to 5s3p2d1f pattern {62111/411/11/1}
 Group   2 Type O   : 11s6p2d1f contracted to 5s3p2d1f pattern {62111/411/11/1}
 Group   3 Type F   : 11s6p2d1f contracted to 5s3p2d1f pattern {62111/411/11/1}
 Group   4 Type H   : 5s1p contracted to 3s1p pattern {311/1}

Atom   0C    basis set group =>   1
Atom   1O    basis set group =>   2
Atom   2O    basis set group =>   2
Atom   3C    basis set group =>   1
Atom   4C    basis set group =>   1
Atom   5C    basis set group =>   1
Atom   6C    basis set group =>   1
Atom   7C    basis set group =>   1
Atom   8C    basis set group =>   1
Atom   9C    basis set group =>   1
Atom  10F    basis set group =>   3
Atom  11F    basis set group =>   3
Atom  12F    basis set group =>   3
Atom  13F    basis set group =>   3
Atom  14F    basis set group =>   3
Atom  15F    basis set group =>   3
Atom  16F    basis set group =>   3
Atom  17F    basis set group =>   3
Atom  18F    basis set group =>   3
Atom  19F    basis set group =>   3
Atom  20F    basis set group =>   3
Atom  21F    basis set group =>   3
Atom  22F    basis set group =>   3
Atom  23F    basis set group =>   3
Atom  24H    basis set group =>   4
---------------------------------
AUXILIARY/J BASIS SET INFORMATION
---------------------------------
There are 4 groups of distinct atoms

 Group   1 Type C   : 12s5p4d2f1g contracted to 6s4p3d1f1g pattern {711111/2111/211/2/1}
 Group   2 Type O   : 12s5p4d2f1g contracted to 6s4p3d1f1g pattern {711111/2111/211/2/1}
 Group   3 Type F   : 12s5p4d2f1g contracted to 6s4p3d1f1g pattern {711111/2111/211/2/1}
 Group   4 Type H   : 5s2p1d contracted to 3s1p1d pattern {311/2/1}

Atom   0C    basis set group =>   1
Atom   1O    basis set group =>   2
Atom   2O    basis set group =>   2
Atom   3C    basis set group =>   1
Atom   4C    basis set group =>   1
Atom   5C    basis set group =>   1
Atom   6C    basis set group =>   1
Atom   7C    basis set group =>   1
Atom   8C    basis set group =>   1
Atom   9C    basis set group =>   1
Atom  10F    basis set group =>   3
Atom  11F    basis set group =>   3
Atom  12F    basis set group =>   3
Atom  13F    basis set group =>   3
Atom  14F    basis set group =>   3
Atom  15F    basis set group =>   3
Atom  16F    basis set group =>   3
Atom  17F    basis set group =>   3
Atom  18F    basis set group =>   3
Atom  19F    basis set group =>   3
Atom  20F    basis set group =>   3
Atom  21F    basis set group =>   3
Atom  22F    basis set group =>   3
Atom  23F    basis set group =>   3
Atom  24H    basis set group =>   4


           ************************************************************
           *        Program running with 20 parallel MPI-processes    *
           *              working on a common directory               *
           ************************************************************
------------------------------------------------------------------------------
                             ORCA STARTUP CALCULATIONS
                           -- RI-GTO INTEGRALS CHOSEN --
------------------------------------------------------------------------------
------------------------------------------------------------------------------
                   ___                                                        
                  /   \      - P O W E R E D   B Y -                         
                 /     \                                                     
                 |  |  |   _    _      __       _____    __    __             
                 |  |  |  | |  | |    /  \     |  _  \  |  |  /  |          
                  \  \/   | |  | |   /    \    | | | |  |  | /  /          
                 / \  \   | |__| |  /  /\  \   | |_| |  |  |/  /          
                |  |  |   |  __  | /  /__\  \  |    /   |      \           
                |  |  |   | |  | | |   __   |  |    \   |  |\   \          
                \     /   | |  | | |  |  |  |  | |\  \  |  | \   \       
                 \___/    |_|  |_| |__|  |__|  |_| \__\ |__|  \__/        
                                                                              
                      - O R C A' S   B I G   F R I E N D -                    
                                      &                                       
                       - I N T E G R A L  F E E D E R -                       
                                                                              
 v1 FN, 2020, v2 2021, v3 2022-2024                                           
------------------------------------------------------------------------------


----------------------
SHARK INTEGRAL PACKAGE
----------------------

Number of atoms                             ...     25
Number of basis functions                   ...    750
Number of shells                            ...    268
Maximum angular momentum                    ...      3
Integral batch strategy                     ... SHARK/LIBINT Hybrid
RI-J (if used) integral strategy            ... SPLIT-RIJ (Revised 2003 algorithm where possible)
Printlevel                                  ...      1
Contraction scheme used                     ... SEGMENTED contraction
Prescreening option                         ... SCHWARTZ
   Thresh                                   ... 2.500e-11
   Tcut                                     ... 2.500e-12
   Tpresel                                  ... 2.500e-12 
Coulomb Range Separation                    ... NOT USED
Exchange Range Separation                   ... NOT USED
Multipole approximations                    ... NOT USED
Finite Nucleus Model                        ... NOT USED
CABS basis                                  ... NOT available
Auxiliary Coulomb fitting basis             ... AVAILABLE
   # of basis functions in Aux-J            ...   1187
   # of shells in Aux-J                     ...    365
   Maximum angular momentum in Aux-J        ...      4
Auxiliary J/K fitting basis                 ... NOT available
Auxiliary Correlation fitting basis         ... NOT available
Auxiliary 'external' fitting basis          ... NOT available

Checking pre-screening integrals            ... done (  0.0 sec) Dimension = 268
Check shell pair data                       ... done (  0.0 sec)
Shell pair information
Shell pair cut-off parameter TPreSel        ...   2.5e-12
Total number of shell pairs                 ...     36046
Shell pairs after pre-screening             ...     22560
Total number of primitive shell pairs       ...    118872
Primitive shell pairs kept                  ...     47988
          la=0 lb=0:   4307 shell pairs
          la=1 lb=0:   6163 shell pairs
          la=1 lb=1:   2124 shell pairs
          la=2 lb=0:   3355 shell pairs
          la=2 lb=1:   2440 shell pairs
          la=2 lb=2:    692 shell pairs
          la=3 lb=0:   1519 shell pairs
          la=3 lb=1:   1175 shell pairs
          la=3 lb=2:    634 shell pairs
          la=3 lb=3:    151 shell pairs

Calculating one electron integrals          ... done (  0.0 sec)
Calculating RI/J V-Matrix + Cholesky decomp.... done (  0.1 sec)
Calculating Nuclear repulsion               ... done (  0.0 sec) ENN=   2673.795162510135 Eh

Diagonalization of the overlap matrix:
Smallest eigenvalue                        ... 5.936e-05
Time for diagonalization                   ...    0.119 sec
Threshold for overlap eigenvalues          ... 1.000e-07
Number of eigenvalues below threshold      ... 0
Time for construction of square roots      ...    0.060 sec
Total time needed                          ...    0.186 sec

-------------------
DFT GRID GENERATION
-------------------

General Integration Accuracy     IntAcc      ... 4.388
Radial Grid Type                 RadialGrid  ... OptM3 with GC (2021)
Angular Grid (max. ang.)         AngularGrid ... 4 (Lebedev-302)
Angular grid pruning method      GridPruning ... 4 (adaptive)
Weight generation scheme         WeightScheme... mBecke (2022)
Basis function cutoff            BFCut       ... 1.0000e-11
Integration weight cutoff        WCut        ... 1.0000e-14
Partially contracted basis set               ... off
Rotationally invariant grid construction     ... off
Angular grids for H and He will be reduced by one unit

Total number of grid points                  ...   148638
Total number of batches                      ...     2337
Average number of points per batch           ...       63
Average number of grid points per atom       ...     5946

--------------------
COSX GRID GENERATION
--------------------

GRIDX 1
-------
General Integration Accuracy     IntAcc      ... 3.816
Radial Grid Type                 RadialGrid  ... OptM3 with GC (2021)
Angular Grid (max. ang.)         AngularGrid ... 1 (Lebedev-50)
Angular grid pruning method      GridPruning ... 4 (adaptive)
Weight generation scheme         WeightScheme... mBecke (2022)
Basis function cutoff            BFCut       ... 1.0000e-11
Integration weight cutoff        WCut        ... 1.0000e-14
Partially contracted basis set               ... on
Rotationally invariant grid construction     ... off
Angular grids for H and He will be reduced by one unit

Total number of grid points                  ...    18683
Total number of batches                      ...      156
Average number of points per batch           ...      119
Average number of grid points per atom       ...      747
UseSFitting                                  ... on

GRIDX 2
-------
General Integration Accuracy     IntAcc      ... 4.020
Radial Grid Type                 RadialGrid  ... OptM3 with GC (2021)
Angular Grid (max. ang.)         AngularGrid ... 2 (Lebedev-110)
Angular grid pruning method      GridPruning ... 4 (adaptive)
Weight generation scheme         WeightScheme... mBecke (2022)
Basis function cutoff            BFCut       ... 1.0000e-11
Integration weight cutoff        WCut        ... 1.0000e-14
Partially contracted basis set               ... on
Rotationally invariant grid construction     ... off
Angular grids for H and He will be reduced by one unit

Total number of grid points                  ...    44064
Total number of batches                      ...      359
Average number of points per batch           ...      122
Average number of grid points per atom       ...     1763
UseSFitting                                  ... on

GRIDX 3
-------
General Integration Accuracy     IntAcc      ... 4.338
Radial Grid Type                 RadialGrid  ... OptM3 with GC (2021)
Angular Grid (max. ang.)         AngularGrid ... 3 (Lebedev-194)
Angular grid pruning method      GridPruning ... 4 (adaptive)
Weight generation scheme         WeightScheme... mBecke (2022)
Basis function cutoff            BFCut       ... 1.0000e-11
Integration weight cutoff        WCut        ... 1.0000e-14
Partially contracted basis set               ... on
Rotationally invariant grid construction     ... off
Angular grids for H and He will be reduced by one unit

Total number of grid points                  ...    97566
Total number of batches                      ...      774
Average number of points per batch           ...      126
Average number of grid points per atom       ...     3903
UseSFitting                                  ... on
Initializing property integral containers    ... done (  0.0 sec)

SHARK setup successfully completed in   3.6 seconds

Maximum memory used throughout the entire STARTUP-calculation: 57.7 MB


           ************************************************************
           *        Program running with 20 parallel MPI-processes    *
           *              working on a common directory               *
           ************************************************************
-------------------------------------------------------------------------------
                                 ORCA GUESS
                   Start orbitals & Density for SCF / CASSCF
-------------------------------------------------------------------------------

------------
SCF SETTINGS
------------
Hamiltonian:
 Density Functional     Method          .... DFT(GTOs)
 Exchange Functional    Exchange        .... B88
   X-Alpha parameter    XAlpha          ....  0.666667
   Becke's b parameter  XBeta           ....  0.004200
 Correlation Functional Correlation     .... LYP
 LDA part of GGA corr.  LDAOpt          .... VWN-5
 Gradients option       PostSCFGGA      .... off
 Hybrid DFT is turned on
   Fraction HF Exchange ScalHFX         ....  0.200000
   Scaling of DF-GGA-X  ScalDFX         ....  0.720000
   Scaling of DF-GGA-C  ScalDFC         ....  0.810000
   Scaling of DF-LDA-C  ScalLDAC        ....  1.000000
   Perturbative correction              ....  0.000000
   NL short-range parameter             ....  4.800000
 RI-approximation to the Coulomb term is turned on
   Number of AuxJ basis functions       .... 1187
   RIJ-COSX (HFX calculated with COS-X)).... on


General Settings:
 Integral files         IntName         .... rf_mecn_freq_B3L_C8_P_B
 Hartree-Fock type      HFTyp           .... UHF
 Total Charge           Charge          ....    0
 Multiplicity           Mult            ....    2
 Number of Electrons    NEL             ....  191
 Basis Dimension        Dim             ....  750
 Nuclear Repulsion      ENuc            ....   2673.7951625101 Eh

Convergence Acceleration:
 AO-DIIS                CNVDIIS         .... on
   Start iteration      DIISMaxIt       ....     0
   Startup error        DIISStart       ....  0.200000
   # of expansion vecs  DIISMaxEq       ....     5
   Bias factor          DIISBfac        ....   1.050
   Max. coefficient     DIISMaxC        ....  10.000
 MO-DIIS                CNVKDIIS        .... off
 Trust-Rad. Augm. Hess. CNVTRAH         .... auto
   Auto Start mean grad. ratio tolernc. ....  1.125000
   Auto Start start iteration           ....    50
   Auto Start num. interpolation iter.  ....    10
   Max. Number of Micro iterations      ....    24
   Max. Number of Macro iterations      .... Maxiter - #DIIS iter
   Number of Davidson start vectors     ....     2
   Converg. threshold    (grad. norm)   ....   1.000e-05
   Grad. Scal. Fac. for Micro threshold ....   0.100
   Minimum threshold for Micro iter.    ....   1.000e-02
   NR start threshold (gradient norm)   ....   1.000e-04
   Initial trust radius                 ....   0.400
   Minimum AH scaling param. (alpha)    ....   1.000
   Maximum AH scaling param. (alpha)    .... 1000.000
   Quad. conv. algorithm                .... NR
   White noise on init. David. guess    .... on
   Maximum white noise                  ....   0.010
   Pseudo random numbers                .... off
   Inactive MOs                         .... canonical
   Orbital update algorithm             .... Taylor
   Preconditioner                       .... Diag
   Full preconditioner red. dimension   ....   250
 SOSCF                  CNVSOSCF        .... on
   Start iteration      SOSCFMaxIt      ....   150
   Startup grad/error   SOSCFStart      ....  0.001000
   Hessian update       SOSCFHessUp     .... L-BFGS
 Level Shifting         CNVShift        .... on
   Level shift para.    LevelShift      ....    0.2500
   Turn off err/grad.   ShiftErr        ....    0.0000
 Zerner damping         CNVZerner       .... off
 Static damping         CNVDamp         .... on
   Fraction old density DampFac         ....    0.8500
   Max. Damping (<1)    DampMax         ....    0.9800
   Min. Damping (>=0)   DampMin         ....    0.0000
   Turn off err/grad.   DampErr         ....    0.0300

SCF Procedure:
 Maximum # iterations   MaxIter         ....  1500
 SCF integral mode      SCFMode         .... Direct
   Integral package                     .... SHARK and LIBINT hybrid scheme
 Reset frequency        DirectResetFreq ....    20
 Integral Threshold     Thresh          ....  2.500e-11 Eh
 Primitive CutOff       TCut            ....  2.500e-12 Eh

Convergence Tolerance:
 Convergence Check Mode ConvCheckMode   .... Total+1el-Energy
 Convergence forced     ConvForced      .... 0
 Energy Change          TolE            ....  1.000e-08 Eh
 1-El. energy change                    ....  1.000e-05 Eh
 Orbital Gradient       TolG            ....  1.000e-05
 Orbital Rotation angle TolX            ....  1.000e-05
 DIIS Error             TolErr          ....  5.000e-07

------------------------------
INITIAL GUESS: MODEL POTENTIAL
------------------------------
Loading Hartree-Fock densities                     ... done
Calculating cut-offs                               ... done
Initializing the effective Hamiltonian             ... done
Setting up the integral package (SHARK)            ... done
Starting the Coulomb interaction                   ... done (   0.3 sec)
Making the grid                                    ... done (   0.3 sec)
Mapping shells                                     ... done
Starting the XC term evaluation                    ... done (   0.2 sec)
  promolecular density results
     # of electrons  =    190.996968819
     EX              =   -198.620421222
     EC              =     -7.177353850
     EX+EC           =   -205.797775072
Transforming the Hamiltonian                       ... done (   0.1 sec)
Diagonalizing the Hamiltonian                      ... done (   0.1 sec)
Back transforming the eigenvectors                 ... done (   0.0 sec)
Now organizing SCF variables                       ... done
                      ------------------
                      INITIAL GUESS DONE (   1.2 sec)
                      ------------------
             **** ENERGY FILE WAS UPDATED (rf_mecn_freq_B3L_C8_P_B.en.tmp) ****
Finished Guess after   2.1 sec
Maximum memory used throughout the entire GUESS-calculation: 46.8 MB


           ************************************************************
           *        Program running with 20 parallel MPI-processes    *
           *              working on a common directory               *
           ************************************************************

-------------------------------------------------------------------------------------------
                                      ORCA LEAN-SCF
                              memory conserving SCF solver
-------------------------------------------------------------------------------------------

--------------------
CPCM SOLVATION MODEL
--------------------
CPCM parameters:
  Epsilon                                         ...      35.6880
  Refrac                                          ...       1.3442
  Rsolv                                           ...       1.3000
  Surface type                                    ... GAUSSIAN VDW
  Discretization scheme                           ... Constant charge density
    Threshold for H atoms                         ...       5.0000 (charges/Ang^2)
    Threshold for non-H atoms                     ...       5.0000 (charges/Ang^2)
  Epsilon function type                           ...         CPCM
Solvent:                                          ... ACETONITRILE
SMD-CDS solvent descriptors:
  Soln                                            ...       1.3442
  Soln25                                          ...       1.3416
  Sola                                            ...       0.0700
  Solb                                            ...       0.3200
  Solg                                            ...      41.2500
  Solc                                            ...       0.0000
  Solh                                            ...       0.0000
Radii:
  Scheme                                          ... Element-dependent radii
  Radius for C  used is    3.4960 Bohr (=   1.8500 Ang.)
  Radius for O  used is    4.0969 Bohr (=   2.1680 Ang.)
  Radius for F  used is    3.2692 Bohr (=   1.7300 Ang.)
  Radius for H  used is    2.2677 Bohr (=   1.2000 Ang.)
Calculating surface                               ...        done! (  0.0s)
Cavity surface points                             ...         2128
Cavity Volume                                     ...    2106.4955
Cavity Surface-area                               ...    1093.7380
Calculating surface distance matrix               ...        done! (  0.0s)
Performing Cholesky decomposition & store         ...        done! (  0.1s)
Overall time for CPCM initialization              ...                 0.1s

----------------------------------------D-I-I-S--------------------------------------------
Iteration    Energy (Eh)           Delta-E    RMSDP     MaxDP     DIISErr   Damp  Time(sec)
-------------------------------------------------------------------------------------------
               ***  Starting incremental Fock matrix formation  ***
    1    -1853.2246673123950131     0.00e+00  1.96e-04  1.41e-02  1.48e-01  0.850   7.6
Warning: op=1 Small HOMO/LUMO gap (   0.090) - skipping pre-diagonalization
         Will do a full diagonalization
    2    -1853.3653287551446738    -1.41e-01  1.90e-04  1.29e-02  9.98e-02  0.850   5.5
                               ***Turning on AO-DIIS***
    3    -1853.4408971062171076    -7.56e-02  8.81e-05  9.39e-03  5.75e-02  0.850   4.3
    4    -1853.4864085440581221    -4.55e-02  5.26e-05  8.35e-03  4.39e-02  0.850   4.3
    5    -1853.5189104067189874    -3.25e-02  3.99e-05  7.90e-03  3.74e-02  0.850   4.2
    6    -1853.5447766223155668    -2.59e-02  3.50e-05  7.54e-03  3.25e-02  0.850   4.3
    7    -1853.5663640237612526    -2.16e-02  3.24e-05  7.17e-03  2.77e-02  0.850   4.1
    8    -1853.5846069458607417    -1.82e-02  1.91e-04  4.34e-02  2.28e-02  0.000   4.1
    9    -1853.6791763444603021    -9.46e-02  1.76e-05  1.52e-03  3.64e-03  0.000   4.3
   10    -1853.6793879816627850    -2.12e-04  7.74e-06  1.29e-03  1.43e-03  0.000   3.7
                              *** Initializing SOSCF ***
---------------------------------------S-O-S-C-F--------------------------------------
Iteration    Energy (Eh)           Delta-E    RMSDP     MaxDP     MaxGrad    Time(sec)
--------------------------------------------------------------------------------------
   11    -1853.6794112467910054    -2.33e-05  3.82e-06  9.05e-04  5.63e-04     4.1
               *** Restarting incremental Fock matrix formation ***
   12    -1853.6794365172086145    -2.53e-05  3.26e-06  7.28e-04  2.48e-04     7.2
   13    -1853.6794370641841851    -5.47e-07  2.24e-06  4.74e-04  2.99e-04     4.5
   14    -1853.6794378282588696    -7.64e-07  1.29e-06  1.89e-04  9.07e-05     4.4
   15    -1853.6794379134394148    -8.52e-08  5.22e-07  5.06e-05  2.63e-05     4.4
   16    -1853.6794379215757544    -8.14e-09  1.93e-07  2.26e-05  7.49e-06     4.0
                 **** Energy Check signals convergence ****

               *****************************************************
               *                     SUCCESS                       *
               *           SCF CONVERGED AFTER  16 CYCLES          *
               *****************************************************

Recomputing exchange energy using gridx3       ... done (    9.168 sec)
Old exchange energy                            :    -39.822006232 Eh
New exchange energy                            :    -39.822048801 Eh
Exchange energy change after final integration :     -0.000042569 Eh
Total energy after final integration           :  -1853.679480491 Eh

SMD CDS free energy correction energy :                 3.55991     Kcal/mol
Total Energy after SMD CDS correction =             -1853.673807415 Eh
             **** ENERGY FILE WAS UPDATED (rf_mecn_freq_B3L_C8_P_B.en.tmp) ****

----------------
TOTAL SCF ENERGY
----------------

Total Energy       :      -1853.67380741538477 Eh          -50441.02867 eV

Components:
Nuclear Repulsion  :       2673.79516251013547 Eh           72757.66530 eV
Electronic Energy  :      -4527.46216458553317 Eh         -123198.50879 eV
One Electron Energy:      -7898.43901433174960 Eh         -214927.45228 eV
Two Electron Energy:       3370.97684974621689 Eh           91728.94349 eV
CPCM Dielectric    :         -0.01243584617892 Eh              -0.33840 eV
SMD CDS (Gcds)     :          0.00567307522684 Eh               0.15437 eV

Virial components:
Potential Energy   :      -3701.05559659965638 Eh         -100710.84282 eV
Kinetic Energy     :       1847.38178918427138 Eh           50269.81415 eV
Virial Ratio       :          2.00340591114839

DFT components:
N(Alpha)           :       95.999992597915 electrons
N(Beta)            :       94.999971300354 electrons
N(Total)           :      190.999963898269 electrons
E(X)               :     -158.693901127289 Eh       
E(C)               :       -8.380513787181 Eh       
E(XC)              :     -167.074414914470 Eh       

CPCM Solvation Model Properties:
Surface-charge          :         -0.00951654398718
Corrected charge        :         -0.00000000000000
Outlying charge corr.   :          0.00000498772775 Eh               0.00014 eV
Free-energy (cav+disp)  :          0.00567307522684 Eh               0.15437 eV

---------------
SCF CONVERGENCE
---------------

  Last Energy change         ...    8.1363e-09  Tolerance :   1.0000e-08
  Last MAX-Density change    ...    2.2571e-05  Tolerance :   1.0000e-07
  Last RMS-Density change    ...    1.9270e-07  Tolerance :   5.0000e-09
  Last DIIS Error            ...    5.6329e-04  Tolerance :   5.0000e-07
  Last Orbital Gradient      ...    7.4886e-06  Tolerance :   1.0000e-05
  Last Orbital Rotation      ...    2.3373e-05  Tolerance :   1.0000e-05


----------------------
UHF SPIN CONTAMINATION
----------------------

Warning: in a DFT calculation there is little theoretical justification to 
         calculate <S**2> as in Hartree-Fock theory. We will do it anyways
         but you should keep in mind that the values have only limited relevance

Expectation value of <S**2>     :     0.752606
Ideal value S*(S+1) for S=0.5   :     0.750000
Deviation                       :     0.002606

----------------
ORBITAL ENERGIES
----------------
                 SPIN UP ORBITALS
  NO   OCC          E(Eh)            E(eV) 
   0   1.0000     -24.750549      -673.4967 
   1   1.0000     -24.749720      -673.4741 
   2   1.0000     -24.745543      -673.3605 
   3   1.0000     -24.745365      -673.3556 
   4   1.0000     -24.745050      -673.3471 
   5   1.0000     -24.744931      -673.3438 
   6   1.0000     -24.744814      -673.3406 
   7   1.0000     -24.744352      -673.3281 
   8   1.0000     -24.744151      -673.3226 
   9   1.0000     -24.743466      -673.3039 
  10   1.0000     -24.739951      -673.2083 
  11   1.0000     -24.735343      -673.0829 
  12   1.0000     -24.735302      -673.0818 
  13   1.0000     -24.733411      -673.0303 
  14   1.0000     -19.207865      -522.6726 
  15   1.0000     -19.154833      -521.2295 
  16   1.0000     -10.410818      -283.2928 
  17   1.0000     -10.410428      -283.2821 
  18   1.0000     -10.408311      -283.2245 
  19   1.0000     -10.406497      -283.1752 
  20   1.0000     -10.404465      -283.1199 
  21   1.0000     -10.396899      -282.9140 
  22   1.0000     -10.377852      -282.3957 
  23   1.0000     -10.346869      -281.5526 
  24   1.0000      -1.337478       -36.3946 
  25   1.0000      -1.327885       -36.1336 
  26   1.0000      -1.320551       -35.9340 
  27   1.0000      -1.310957       -35.6730 
  28   1.0000      -1.309442       -35.6317 
  29   1.0000      -1.302153       -35.4334 
  30   1.0000      -1.301735       -35.4220 
  31   1.0000      -1.267900       -34.5013 
  32   1.0000      -1.264056       -34.3967 
  33   1.0000      -1.260493       -34.2998 
  34   1.0000      -1.254376       -34.1333 
  35   1.0000      -1.251792       -34.0630 
  36   1.0000      -1.245822       -33.9006 
  37   1.0000      -1.244665       -33.8691 
  38   1.0000      -1.147276       -31.2190 
  39   1.0000      -1.063175       -28.9305 
  40   1.0000      -0.852625       -23.2011 
  41   1.0000      -0.837762       -22.7967 
  42   1.0000      -0.814082       -22.1523 
  43   1.0000      -0.779469       -21.2104 
  44   1.0000      -0.736151       -20.0317 
  45   1.0000      -0.696694       -18.9580 
  46   1.0000      -0.681755       -18.5515 
  47   1.0000      -0.669652       -18.2222 
  48   1.0000      -0.648520       -17.6471 
  49   1.0000      -0.646988       -17.6054 
  50   1.0000      -0.636732       -17.3264 
  51   1.0000      -0.630176       -17.1480 
  52   1.0000      -0.624940       -17.0055 
  53   1.0000      -0.622811       -16.9476 
  54   1.0000      -0.612586       -16.6693 
  55   1.0000      -0.608364       -16.5544 
  56   1.0000      -0.604528       -16.4501 
  57   1.0000      -0.601349       -16.3636 
  58   1.0000      -0.591376       -16.0921 
  59   1.0000      -0.589900       -16.0520 
  60   1.0000      -0.583461       -15.8768 
  61   1.0000      -0.574570       -15.6348 
  62   1.0000      -0.557742       -15.1769 
  63   1.0000      -0.521726       -14.1969 
  64   1.0000      -0.518484       -14.1087 
  65   1.0000      -0.516505       -14.0548 
  66   1.0000      -0.509054       -13.8521 
  67   1.0000      -0.506733       -13.7889 
  68   1.0000      -0.503153       -13.6915 
  69   1.0000      -0.496915       -13.5218 
  70   1.0000      -0.491907       -13.3855 
  71   1.0000      -0.490088       -13.3360 
  72   1.0000      -0.489235       -13.3128 
  73   1.0000      -0.485338       -13.2067 
  74   1.0000      -0.481896       -13.1131 
  75   1.0000      -0.479090       -13.0367 
  76   1.0000      -0.474016       -12.8986 
  77   1.0000      -0.468411       -12.7461 
  78   1.0000      -0.466135       -12.6842 
  79   1.0000      -0.462178       -12.5765 
  80   1.0000      -0.457962       -12.4618 
  81   1.0000      -0.457305       -12.4439 
  82   1.0000      -0.453924       -12.3519 
  83   1.0000      -0.450405       -12.2562 
  84   1.0000      -0.449274       -12.2254 
  85   1.0000      -0.445569       -12.1245 
  86   1.0000      -0.444769       -12.1028 
  87   1.0000      -0.443108       -12.0576 
  88   1.0000      -0.439006       -11.9460 
  89   1.0000      -0.432227       -11.7615 
  90   1.0000      -0.416571       -11.3355 
  91   1.0000      -0.388339       -10.5672 
  92   1.0000      -0.361438        -9.8352 
  93   1.0000      -0.354900        -9.6573 
  94   1.0000      -0.318436        -8.6651 
  95   1.0000      -0.265923        -7.2361 
  96   0.0000      -0.053855        -1.4655 
  97   0.0000      -0.008300        -0.2259 
  98   0.0000       0.006572         0.1788 
  99   0.0000       0.030484         0.8295 
 100   0.0000       0.037370         1.0169 
 101   0.0000       0.049368         1.3434 
 102   0.0000       0.076140         2.0719 
 103   0.0000       0.088239         2.4011 
 104   0.0000       0.102179         2.7804 
 105   0.0000       0.116710         3.1758 
 106   0.0000       0.128982         3.5098 

                 SPIN DOWN ORBITALS
  NO   OCC          E(Eh)            E(eV) 
   0   1.0000     -24.746805      -673.3948 
   1   1.0000     -24.745928      -673.3709 
   2   1.0000     -24.745544      -673.3605 
   3   1.0000     -24.745360      -673.3555 
   4   1.0000     -24.745049      -673.3470 
   5   1.0000     -24.744907      -673.3431 
   6   1.0000     -24.744814      -673.3406 
   7   1.0000     -24.744151      -673.3226 
   8   1.0000     -24.744123      -673.3218 
   9   1.0000     -24.743466      -673.3039 
  10   1.0000     -24.739917      -673.2074 
  11   1.0000     -24.735343      -673.0829 
  12   1.0000     -24.733825      -673.0416 
  13   1.0000     -24.733411      -673.0303 
  14   1.0000     -19.207865      -522.6726 
  15   1.0000     -19.154833      -521.2295 
  16   1.0000     -10.410831      -283.2931 
  17   1.0000     -10.410433      -283.2823 
  18   1.0000     -10.408362      -283.2259 
  19   1.0000     -10.406498      -283.1752 
  20   1.0000     -10.403743      -283.1002 
  21   1.0000     -10.396899      -282.9140 
  22   1.0000     -10.362268      -281.9717 
  23   1.0000     -10.346869      -281.5526 
  24   1.0000      -1.337169       -36.3862 
  25   1.0000      -1.325334       -36.0642 
  26   1.0000      -1.316222       -35.8162 
  27   1.0000      -1.309709       -35.6390 
  28   1.0000      -1.309359       -35.6295 
  29   1.0000      -1.302087       -35.4316 
  30   1.0000      -1.299384       -35.3580 
  31   1.0000      -1.267745       -34.4971 
  32   1.0000      -1.260656       -34.3042 
  33   1.0000      -1.256376       -34.1877 
  34   1.0000      -1.254039       -34.1241 
  35   1.0000      -1.251761       -34.0621 
  36   1.0000      -1.244665       -33.8691 
  37   1.0000      -1.243921       -33.8488 
  38   1.0000      -1.147276       -31.2190 
  39   1.0000      -1.063175       -28.9305 
  40   1.0000      -0.851820       -23.1792 
  41   1.0000      -0.835183       -22.7265 
  42   1.0000      -0.810269       -22.0485 
  43   1.0000      -0.775029       -21.0896 
  44   1.0000      -0.731756       -19.9121 
  45   1.0000      -0.693434       -18.8693 
  46   1.0000      -0.678005       -18.4494 
  47   1.0000      -0.669560       -18.2197 
  48   1.0000      -0.648011       -17.6333 
  49   1.0000      -0.645330       -17.5603 
  50   1.0000      -0.636360       -17.3162 
  51   1.0000      -0.628434       -17.1006 
  52   1.0000      -0.623486       -16.9659 
  53   1.0000      -0.621119       -16.9015 
  54   1.0000      -0.610254       -16.6059 
  55   1.0000      -0.607170       -16.5219 
  56   1.0000      -0.601323       -16.3628 
  57   1.0000      -0.598569       -16.2879 
  58   1.0000      -0.589366       -16.0375 
  59   1.0000      -0.587905       -15.9977 
  60   1.0000      -0.581771       -15.8308 
  61   1.0000      -0.574428       -15.6310 
  62   1.0000      -0.529482       -14.4079 
  63   1.0000      -0.521701       -14.1962 
  64   1.0000      -0.517690       -14.0871 
  65   1.0000      -0.516302       -14.0493 
  66   1.0000      -0.507182       -13.8011 
  67   1.0000      -0.506245       -13.7756 
  68   1.0000      -0.502210       -13.6658 
  69   1.0000      -0.496110       -13.4998 
  70   1.0000      -0.491574       -13.3764 
  71   1.0000      -0.489753       -13.3269 
  72   1.0000      -0.486826       -13.2472 
  73   1.0000      -0.482843       -13.1388 
  74   1.0000      -0.478726       -13.0268 
  75   1.0000      -0.473811       -12.8930 
  76   1.0000      -0.468323       -12.7437 
  77   1.0000      -0.467449       -12.7199 
  78   1.0000      -0.463506       -12.6126 
  79   1.0000      -0.462098       -12.5743 
  80   1.0000      -0.457226       -12.4417 
  81   1.0000      -0.454830       -12.3766 
  82   1.0000      -0.453798       -12.3485 
  83   1.0000      -0.449407       -12.2290 
  84   1.0000      -0.448713       -12.2101 
  85   1.0000      -0.444289       -12.0897 
  86   1.0000      -0.444109       -12.0848 
  87   1.0000      -0.442550       -12.0424 
  88   1.0000      -0.438006       -11.9188 
  89   1.0000      -0.431355       -11.7378 
  90   1.0000      -0.414978       -11.2921 
  91   1.0000      -0.386389       -10.5142 
  92   1.0000      -0.361365        -9.8332 
  93   1.0000      -0.353558        -9.6208 
  94   1.0000      -0.318398        -8.6640 
  95   0.0000      -0.104846        -2.8530 
  96   0.0000      -0.053772        -1.4632 
  97   0.0000      -0.006773        -0.1843 
  98   0.0000       0.008329         0.2266 
  99   0.0000       0.032229         0.8770 
 100   0.0000       0.039488         1.0745 
 101   0.0000       0.053262         1.4493 
 102   0.0000       0.080025         2.1776 
 103   0.0000       0.091085         2.4786 
 104   0.0000       0.102828         2.7981 
 105   0.0000       0.119410         3.2493 
*Only the first 10 virtual orbitals were printed.

                    ********************************
                    * MULLIKEN POPULATION ANALYSIS *
                    ********************************

--------------------------------------------
MULLIKEN ATOMIC CHARGES AND SPIN POPULATIONS
--------------------------------------------
   0 C :    0.227527   -0.000004
   1 O :   -0.347084   -0.000000
   2 O :   -0.284795   -0.000004
   3 C :    0.412727   -0.000015
   4 C :    0.307327   -0.000049
   5 C :    0.327865   -0.000157
   6 C :    0.336984   -0.000683
   7 C :    0.323460   -0.003093
   8 C :    0.378919   -0.002481
   9 C :    0.271149    0.845497
  10 F :   -0.176444    0.000000
  11 F :   -0.172273   -0.000001
  12 F :   -0.170164    0.000001
  13 F :   -0.172075   -0.000003
  14 F :   -0.168150    0.000003
  15 F :   -0.166499   -0.000007
  16 F :   -0.166403   -0.000005
  17 F :   -0.167694   -0.000031
  18 F :   -0.169638    0.000636
  19 F :   -0.167901    0.002361
  20 F :   -0.172112    0.000392
  21 F :   -0.176984    0.029943
  22 F :   -0.145278    0.063484
  23 F :   -0.143438    0.064216
  24 H :    0.380973   -0.000000
Sum of atomic charges         :   -0.0000000
Sum of atomic spin populations:    1.0000000

-----------------------------------------------------
MULLIKEN REDUCED ORBITAL CHARGES AND SPIN POPULATIONS
-----------------------------------------------------
CHARGE
  0 C s       :     3.098895  s :     3.098895
      pz      :     0.760250  p :     2.389690
      px      :     0.855437
      py      :     0.774003
      dz2     :     0.052268  d :     0.259259
      dxz     :     0.033641
      dyz     :     0.060313
      dx2y2   :     0.061162
      dxy     :     0.051875
      f0      :     0.003186  f :     0.024630
      f+1     :     0.002480
      f-1     :     0.003930
      f+2     :     0.003967
      f-2     :     0.003789
      f+3     :     0.002906
      f-3     :     0.004373

  1 O s       :     3.766859  s :     3.766859
      pz      :     1.445901  p :     4.547942
      px      :     1.491817
      py      :     1.610224
      dz2     :     0.005513  d :     0.030523
      dxz     :     0.004440
      dyz     :     0.008645
      dx2y2   :     0.005375
      dxy     :     0.006550
      f0      :     0.000315  f :     0.001761
      f+1     :     0.000193
      f-1     :     0.000281
      f+2     :     0.000358
      f-2     :     0.000396
      f+3     :     0.000025
      f-3     :     0.000194

  2 O s       :     3.793067  s :     3.793067
      pz      :     1.567766  p :     4.459862
      px      :     1.547891
      py      :     1.344205
      dz2     :     0.003928  d :     0.030021
      dxz     :     0.003304
      dyz     :     0.006725
      dx2y2   :     0.008931
      dxy     :     0.007134
      f0      :     0.000155  f :     0.001845
      f+1     :     0.000114
      f-1     :     0.000318
      f+2     :     0.000198
      f-2     :     0.000291
      f+3     :     0.000285
      f-3     :     0.000485

  3 C s       :     3.064382  s :     3.064382
      pz      :     0.659737  p :     2.218019
      px      :     0.928867
      py      :     0.629415
      dz2     :     0.046397  d :     0.277105
      dxz     :     0.055877
      dyz     :     0.076268
      dx2y2   :     0.040197
      dxy     :     0.058365
      f0      :     0.005513  f :     0.027768
      f+1     :     0.004774
      f-1     :     0.005191
      f+2     :     0.003440
      f-2     :     0.001517
      f+3     :     0.004689
      f-3     :     0.002643

  4 C s       :     3.163186  s :     3.163186
      pz      :     0.624965  p :     2.216343
      px      :     0.927926
      py      :     0.663451
      dz2     :     0.053069  d :     0.285060
      dxz     :     0.059109
      dyz     :     0.074716
      dx2y2   :     0.037807
      dxy     :     0.060358
      f0      :     0.004303  f :     0.028084
      f+1     :     0.005149
      f-1     :     0.007429
      f+2     :     0.002465
      f-2     :     0.001753
      f+3     :     0.004457
      f-3     :     0.002529

  5 C s       :     3.152415  s :     3.152415
      pz      :     0.595139  p :     2.205308
      px      :     0.911699
      py      :     0.698470
      dz2     :     0.067592  d :     0.286297
      dxz     :     0.062005
      dyz     :     0.064197
      dx2y2   :     0.035038
      dxy     :     0.057465
      f0      :     0.004197  f :     0.028115
      f+1     :     0.004761
      f-1     :     0.007613
      f+2     :     0.002671
      f-2     :     0.003433
      f+3     :     0.002994
      f-3     :     0.002445

  6 C s       :     3.144535  s :     3.144535
      pz      :     0.580612  p :     2.204031
      px      :     0.911682
      py      :     0.711737
      dz2     :     0.077669  d :     0.286326
      dxz     :     0.061372
      dyz     :     0.055436
      dx2y2   :     0.033108
      dxy     :     0.058741
      f0      :     0.005793  f :     0.028123
      f+1     :     0.004059
      f-1     :     0.005183
      f+2     :     0.003805
      f-2     :     0.005032
      f+3     :     0.002199
      f-3     :     0.002051

  7 C s       :     3.156055  s :     3.156055
      pz      :     0.579333  p :     2.207569
      px      :     0.912758
      py      :     0.715478
      dz2     :     0.077188  d :     0.284789
      dxz     :     0.061047
      dyz     :     0.055097
      dx2y2   :     0.032977
      dxy     :     0.058480
      f0      :     0.005815  f :     0.028127
      f+1     :     0.004081
      f-1     :     0.005125
      f+2     :     0.003817
      f-2     :     0.005039
      f+3     :     0.002212
      f-3     :     0.002037

  8 C s       :     3.096352  s :     3.096352
      pz      :     0.590912  p :     2.216008
      px      :     0.920869
      py      :     0.704226
      dz2     :     0.067214  d :     0.281033
      dxz     :     0.062713
      dyz     :     0.064775
      dx2y2   :     0.031883
      dxy     :     0.054448
      f0      :     0.004475  f :     0.027689
      f+1     :     0.004241
      f-1     :     0.007053
      f+2     :     0.002804
      f-2     :     0.003936
      f+3     :     0.002816
      f-3     :     0.002364

  9 C s       :     3.236144  s :     3.236144
      pz      :     0.932696  p :     2.261173
      px      :     0.720179
      py      :     0.608298
      dz2     :     0.026281  d :     0.204723
      dxz     :     0.033690
      dyz     :     0.035277
      dx2y2   :     0.057572
      dxy     :     0.051903
      f0      :     0.002586  f :     0.026811
      f+1     :     0.001422
      f-1     :     0.004403
      f+2     :     0.002027
      f-2     :     0.005144
      f+3     :     0.006866
      f-3     :     0.004363

 10 F s       :     3.915802  s :     3.915802
      pz      :     1.890445  p :     5.243719
      px      :     1.903871
      py      :     1.449403
      dz2     :     0.002281  d :     0.016221
      dxz     :     0.000163
      dyz     :     0.003379
      dx2y2   :     0.006426
      dxy     :     0.003972
      f0      :     0.000059  f :     0.000702
      f+1     :     0.000013
      f-1     :     0.000140
      f+2     :     0.000101
      f-2     :     0.000009
      f+3     :     0.000159
      f-3     :     0.000222

 11 F s       :     3.913564  s :     3.913564
      pz      :     1.460865  p :     5.241614
      px      :     1.906481
      py      :     1.874269
      dz2     :     0.008108  d :     0.016373
      dxz     :     0.003775
      dyz     :     0.003866
      dx2y2   :     0.000333
      dxy     :     0.000291
      f0      :     0.000317  f :     0.000721
      f+1     :     0.000158
      f-1     :     0.000196
      f+2     :     0.000027
      f-2     :     0.000020
      f+3     :     0.000001
      f-3     :     0.000002

 12 F s       :     3.916996  s :     3.916996
      pz      :     1.858863  p :     5.235935
      px      :     1.906178
      py      :     1.470894
      dz2     :     0.002177  d :     0.016524
      dxz     :     0.000356
      dyz     :     0.004333
      dx2y2   :     0.005941
      dxy     :     0.003716
      f0      :     0.000073  f :     0.000710
      f+1     :     0.000007
      f-1     :     0.000126
      f+2     :     0.000150
      f-2     :     0.000028
      f+3     :     0.000135
      f-3     :     0.000190

 13 F s       :     3.917330  s :     3.917330
      pz      :     1.441943  p :     5.237561
      px      :     1.903675
      py      :     1.891943
      dz2     :     0.008797  d :     0.016477
      dxz     :     0.003999
      dyz     :     0.003345
      dx2y2   :     0.000197
      dxy     :     0.000138
      f0      :     0.000368  f :     0.000707
      f+1     :     0.000170
      f-1     :     0.000152
      f+2     :     0.000008
      f-2     :     0.000006
      f+3     :     0.000001
      f-3     :     0.000001

 14 F s       :     3.916738  s :     3.916738
      pz      :     1.764918  p :     5.234096
      px      :     1.899087
      py      :     1.570091
      dz2     :     0.002249  d :     0.016603
      dxz     :     0.001223
      dyz     :     0.006038
      dx2y2   :     0.003994
      dxy     :     0.003099
      f0      :     0.000081  f :     0.000713
      f+1     :     0.000007
      f-1     :     0.000145
      f+2     :     0.000199
      f-2     :     0.000095
      f+3     :     0.000089
      f-3     :     0.000097

 15 F s       :     3.916530  s :     3.916530
      pz      :     1.469452  p :     5.232586
      px      :     1.904982
      py      :     1.858152
      dz2     :     0.007930  d :     0.016666
      dxz     :     0.003681
      dyz     :     0.004231
      dx2y2   :     0.000368
      dxy     :     0.000456
      f0      :     0.000308  f :     0.000717
      f+1     :     0.000139
      f-1     :     0.000207
      f+2     :     0.000025
      f-2     :     0.000035
      f+3     :     0.000002
      f-3     :     0.000001

 16 F s       :     3.916535  s :     3.916535
      pz      :     1.656022  p :     5.232477
      px      :     1.905814
      py      :     1.670642
      dz2     :     0.003405  d :     0.016674
      dxz     :     0.002031
      dyz     :     0.006762
      dx2y2   :     0.002393
      dxy     :     0.002083
      f0      :     0.000089  f :     0.000717
      f+1     :     0.000026
      f-1     :     0.000236
      f+2     :     0.000179
      f-2     :     0.000107
      f+3     :     0.000040
      f-3     :     0.000039

 17 F s       :     3.916801  s :     3.916801
      pz      :     1.546525  p :     5.233570
      px      :     1.901624
      py      :     1.785421
      dz2     :     0.005667  d :     0.016610
      dxz     :     0.003082
      dyz     :     0.005678
      dx2y2   :     0.001024
      dxy     :     0.001159
      f0      :     0.000170  f :     0.000713
      f+1     :     0.000086
      f-1     :     0.000264
      f+2     :     0.000087
      f-2     :     0.000086
      f+3     :     0.000010
      f-3     :     0.000009

 18 F s       :     3.916964  s :     3.916964
      pz      :     1.655364  p :     5.235434
      px      :     1.906121
      py      :     1.673949
      dz2     :     0.003392  d :     0.016531
      dxz     :     0.002022
      dyz     :     0.006714
      dx2y2   :     0.002349
      dxy     :     0.002054
      f0      :     0.000088  f :     0.000708
      f+1     :     0.000026
      f-1     :     0.000235
      f+2     :     0.000176
      f-2     :     0.000106
      f+3     :     0.000039
      f-3     :     0.000038

 19 F s       :     3.916616  s :     3.916616
      pz      :     1.548796  p :     5.233975
      px      :     1.901114
      py      :     1.784066
      dz2     :     0.005641  d :     0.016594
      dxz     :     0.003058
      dyz     :     0.005678
      dx2y2   :     0.001065
      dxy     :     0.001152
      f0      :     0.000168  f :     0.000715
      f+1     :     0.000087
      f-1     :     0.000265
      f+2     :     0.000089
      f-2     :     0.000087
      f+3     :     0.000011
      f-3     :     0.000010

 20 F s       :     3.916086  s :     3.916086
      pz      :     1.750675  p :     5.239033
      px      :     1.903585
      py      :     1.584773
      dz2     :     0.002264  d :     0.016287
      dxz     :     0.001255
      dyz     :     0.006221
      dx2y2   :     0.003717
      dxy     :     0.002831
      f0      :     0.000080  f :     0.000705
      f+1     :     0.000007
      f-1     :     0.000155
      f+2     :     0.000205
      f-2     :     0.000093
      f+3     :     0.000078
      f-3     :     0.000086

 21 F s       :     3.915702  s :     3.915702
      pz      :     1.489649  p :     5.244843
      px      :     1.906071
      py      :     1.849123
      dz2     :     0.007223  d :     0.015761
      dxz     :     0.003264
      dyz     :     0.004344
      dx2y2   :     0.000393
      dxy     :     0.000536
      f0      :     0.000266  f :     0.000678
      f+1     :     0.000117
      f-1     :     0.000215
      f+2     :     0.000033
      f-2     :     0.000042
      f+3     :     0.000003
      f-3     :     0.000002

 22 F s       :     3.911124  s :     3.911124
      pz      :     1.765419  p :     5.216055
      px      :     1.883481
      py      :     1.567155
      dz2     :     0.002806  d :     0.017336
      dxz     :     0.000941
      dyz     :     0.005826
      dx2y2   :     0.004615
      dxy     :     0.003148
      f0      :     0.000079  f :     0.000764
      f+1     :     0.000009
      f-1     :     0.000163
      f+2     :     0.000185
      f-2     :     0.000084
      f+3     :     0.000112
      f-3     :     0.000133

 23 F s       :     3.911724  s :     3.911724
      pz      :     1.862438  p :     5.213582
      px      :     1.605732
      py      :     1.745411
      dz2     :     0.002211  d :     0.017360
      dxz     :     0.003235
      dyz     :     0.001646
      dx2y2   :     0.003859
      dxy     :     0.006409
      f0      :     0.000080  f :     0.000772
      f+1     :     0.000099
      f-1     :     0.000059
      f+2     :     0.000015
      f-2     :     0.000114
      f+3     :     0.000169
      f-3     :     0.000235

 24 H s       :     0.575876  s :     0.575876
      pz      :     0.012905  p :     0.043152
      px      :     0.018748
      py      :     0.011499


SPIN
  0 C s       :    -0.000001  s :    -0.000001
      pz      :    -0.000001  p :    -0.000002
      px      :    -0.000000
      py      :    -0.000001
      dz2     :    -0.000000  d :    -0.000001
      dxz     :    -0.000000
      dyz     :    -0.000000
      dx2y2   :    -0.000000
      dxy     :    -0.000000
      f0      :    -0.000000  f :    -0.000000
      f+1     :    -0.000000
      f-1     :     0.000000
      f+2     :     0.000000
      f-2     :    -0.000000
      f+3     :    -0.000000
      f-3     :    -0.000000

  1 O s       :     0.000000  s :     0.000000
      pz      :    -0.000001  p :    -0.000000
      px      :     0.000000
      py      :     0.000000
      dz2     :    -0.000000  d :    -0.000000
      dxz     :    -0.000000
      dyz     :    -0.000000
      dx2y2   :    -0.000000
      dxy     :    -0.000000
      f0      :    -0.000000  f :    -0.000000
      f+1     :    -0.000000
      f-1     :    -0.000000
      f+2     :    -0.000000
      f-2     :    -0.000000
      f+3     :    -0.000000
      f-3     :    -0.000000

  2 O s       :    -0.000000  s :    -0.000000
      pz      :    -0.000003  p :    -0.000003
      px      :     0.000001
      py      :    -0.000001
      dz2     :     0.000000  d :     0.000000
      dxz     :     0.000000
      dyz     :     0.000000
      dx2y2   :     0.000000
      dxy     :    -0.000000
      f0      :     0.000000  f :     0.000000
      f+1     :     0.000000
      f-1     :     0.000000
      f+2     :     0.000000
      f-2     :     0.000000
      f+3     :    -0.000000
      f-3     :    -0.000000

  3 C s       :     0.000001  s :     0.000001
      pz      :    -0.000006  p :    -0.000015
      px      :    -0.000007
      py      :    -0.000001
      dz2     :     0.000000  d :    -0.000001
      dxz     :    -0.000000
      dyz     :    -0.000000
      dx2y2   :    -0.000001
      dxy     :    -0.000000
      f0      :     0.000000  f :    -0.000000
      f+1     :     0.000000
      f-1     :     0.000000
      f+2     :    -0.000000
      f-2     :    -0.000000
      f+3     :    -0.000000
      f-3     :     0.000000

  4 C s       :    -0.000012  s :    -0.000012
      pz      :    -0.000006  p :    -0.000030
      px      :    -0.000030
      py      :     0.000006
      dz2     :    -0.000001  d :    -0.000007
      dxz     :     0.000000
      dyz     :    -0.000000
      dx2y2   :    -0.000004
      dxy     :    -0.000002
      f0      :     0.000000  f :    -0.000000
      f+1     :    -0.000000
      f-1     :    -0.000000
      f+2     :    -0.000000
      f-2     :    -0.000000
      f+3     :    -0.000000
      f-3     :    -0.000000

  5 C s       :    -0.000045  s :    -0.000045
      pz      :    -0.000014  p :    -0.000098
      px      :    -0.000030
      py      :    -0.000054
      dz2     :     0.000001  d :    -0.000013
      dxz     :    -0.000001
      dyz     :     0.000000
      dx2y2   :    -0.000011
      dxy     :    -0.000002
      f0      :     0.000000  f :    -0.000001
      f+1     :     0.000000
      f-1     :     0.000000
      f+2     :    -0.000000
      f-2     :     0.000000
      f+3     :    -0.000001
      f-3     :     0.000000

  6 C s       :    -0.000287  s :    -0.000287
      pz      :     0.000370  p :    -0.000276
      px      :    -0.000399
      py      :    -0.000248
      dz2     :    -0.000002  d :    -0.000116
      dxz     :     0.000000
      dyz     :    -0.000025
      dx2y2   :    -0.000039
      dxy     :    -0.000050
      f0      :    -0.000000  f :    -0.000004
      f+1     :     0.000000
      f-1     :     0.000001
      f+2     :    -0.000000
      f-2     :     0.000000
      f+3     :    -0.000004
      f-3     :    -0.000001

  7 C s       :     0.005163  s :     0.005163
      pz      :    -0.000996  p :    -0.007758
      px      :    -0.004704
      py      :    -0.002058
      dz2     :    -0.000169  d :    -0.000526
      dxz     :     0.000024
      dyz     :    -0.000055
      dx2y2   :    -0.000372
      dxy     :     0.000046
      f0      :     0.000008  f :     0.000027
      f+1     :     0.000008
      f-1     :     0.000002
      f+2     :     0.000012
      f-2     :     0.000001
      f+3     :    -0.000003
      f-3     :    -0.000001

  8 C s       :    -0.008137  s :    -0.008137
      pz      :    -0.007635  p :    -0.007440
      px      :     0.004784
      py      :    -0.004589
      dz2     :     0.004660  d :     0.011984
      dxz     :     0.002406
      dyz     :     0.003179
      dx2y2   :     0.001380
      dxy     :     0.000360
      f0      :     0.000140  f :     0.001112
      f+1     :     0.000446
      f-1     :     0.000077
      f+2     :     0.000033
      f-2     :     0.000231
      f+3     :     0.000085
      f-3     :     0.000100

  9 C s       :     0.211764  s :     0.211764
      pz      :     0.565960  p :     0.634062
      px      :     0.012656
      py      :     0.055445
      dz2     :    -0.000291  d :     0.001186
      dxz     :     0.002016
      dyz     :    -0.000222
      dx2y2   :    -0.000266
      dxy     :    -0.000050
      f0      :    -0.000507  f :    -0.001515
      f+1     :    -0.000372
      f-1     :    -0.000466
      f+2     :    -0.000203
      f-2     :     0.000081
      f+3     :    -0.000014
      f-3     :    -0.000034

 10 F s       :    -0.000000  s :    -0.000000
      pz      :     0.000000  p :     0.000000
      px      :    -0.000000
      py      :     0.000000
      dz2     :    -0.000000  d :    -0.000000
      dxz     :    -0.000000
      dyz     :    -0.000000
      dx2y2   :    -0.000000
      dxy     :    -0.000000
      f0      :     0.000000  f :    -0.000000
      f+1     :    -0.000000
      f-1     :    -0.000000
      f+2     :    -0.000000
      f-2     :    -0.000000
      f+3     :    -0.000000
      f-3     :    -0.000000

 11 F s       :    -0.000000  s :    -0.000000
      pz      :     0.000000  p :    -0.000001
      px      :    -0.000001
      py      :    -0.000001
      dz2     :    -0.000000  d :    -0.000000
      dxz     :    -0.000000
      dyz     :    -0.000000
      dx2y2   :    -0.000000
      dxy     :    -0.000000
      f0      :     0.000000  f :    -0.000000
      f+1     :    -0.000000
      f-1     :    -0.000000
      f+2     :    -0.000000
      f-2     :    -0.000000
      f+3     :    -0.000000
      f-3     :     0.000000

 12 F s       :    -0.000001  s :    -0.000001
      pz      :     0.000000  p :     0.000002
      px      :     0.000001
      py      :     0.000001
      dz2     :    -0.000000  d :    -0.000000
      dxz     :    -0.000000
      dyz     :    -0.000000
      dx2y2   :    -0.000000
      dxy     :    -0.000000
      f0      :    -0.000000  f :    -0.000000
      f+1     :    -0.000000
      f-1     :     0.000000
      f+2     :    -0.000000
      f-2     :    -0.000000
      f+3     :    -0.000000
      f-3     :    -0.000000

 13 F s       :    -0.000000  s :    -0.000000
      pz      :     0.000001  p :    -0.000003
      px      :    -0.000002
      py      :    -0.000002
      dz2     :    -0.000000  d :    -0.000000
      dxz     :    -0.000000
      dyz     :    -0.000000
      dx2y2   :    -0.000000
      dxy     :     0.000000
      f0      :     0.000000  f :    -0.000000
      f+1     :    -0.000000
      f-1     :    -0.000000
      f+2     :    -0.000000
      f-2     :    -0.000000
      f+3     :    -0.000000
      f-3     :    -0.000000

 14 F s       :    -0.000017  s :    -0.000017
      pz      :     0.000007  p :     0.000020
      px      :     0.000006
      py      :     0.000006
      dz2     :     0.000000  d :    -0.000000
      dxz     :    -0.000000
      dyz     :    -0.000000
      dx2y2   :    -0.000000
      dxy     :     0.000000
      f0      :    -0.000000  f :    -0.000000
[...]
 11:     61.29   0.000195    0.99  0.000995  ( 0.021214 -0.012831  0.019495)
 12:     62.10   0.000184    0.93  0.000922  ( 0.022390 -0.001900  0.020428)
 13:     73.24   0.000106    0.54  0.000451  ( 0.017189  0.012084  0.003142)
 14:    115.76   0.000134    0.68  0.000361  (-0.012837  0.013743  0.002767)
 15:    136.65   0.000015    0.07  0.000033  ( 0.002884  0.001481  0.004775)
 16:    157.47   0.000068    0.35  0.000135  ( 0.011052  0.000722  0.003578)
 17:    186.07   0.003193   16.14  0.005355  ( 0.002031 -0.003388 -0.073075)
 18:    200.53   0.000179    0.91  0.000279  (-0.014431  0.008092  0.002334)
 19:    203.58   0.000333    1.68  0.000511  (-0.009746 -0.020384  0.000426)
 20:    207.24   0.000157    0.80  0.000237  (-0.002021  0.012797 -0.008311)
 21:    224.98   0.000228    1.15  0.000316  ( 0.015233 -0.003636 -0.008399)
 22:    238.91   0.000013    0.06  0.000017  ( 0.000904 -0.003168  0.002403)
 23:    251.86   0.000078    0.40  0.000097  ( 0.004561  0.005251 -0.006972)
 24:    257.36   0.000019    0.10  0.000023  (-0.001021  0.004658 -0.000534)
 25:    263.87   0.000432    2.18  0.000510  ( 0.020701  0.007782 -0.004619)
 26:    290.38   0.001813    9.16  0.001949  (-0.040919  0.016496 -0.001448)
 27:    305.42   0.000246    1.24  0.000251  ( 0.014241 -0.004013 -0.005651)
 28:    314.85   0.000111    0.56  0.000110  ( 0.002537 -0.004399  0.009195)
 29:    336.11   0.000047    0.24  0.000044  ( 0.001846  0.003156  0.005522)
 30:    355.66   0.000127    0.64  0.000111  ( 0.005778  0.007607  0.004459)
 31:    363.78   0.000199    1.01  0.000171  (-0.002412 -0.009683 -0.008459)
 32:    367.07   0.000271    1.37  0.000230  (-0.010317  0.009964  0.004962)
 33:    372.51   0.000041    0.21  0.000034  ( 0.002400 -0.004446 -0.002948)
 34:    376.00   0.000960    4.85  0.000796  (-0.025372 -0.011933 -0.003205)
 35:    411.64   0.000539    2.72  0.000408  ( 0.019878  0.003217 -0.001715)
 36:    457.35   0.001808    9.14  0.001233  ( 0.030230 -0.011808 -0.013424)
 37:    512.93   0.000109    0.55  0.000066  (-0.001994 -0.006384 -0.004659)
 38:    515.94   0.010123   51.16  0.006123  (-0.074246 -0.009603  0.022768)
 39:    545.98   0.014135   71.43  0.008079  ( 0.086687  0.022800 -0.006672)
 40:    555.42   0.006732   34.02  0.003782  (-0.024661  0.055771 -0.007980)
 41:    570.32   0.005508   27.84  0.003014  ( 0.002488  0.017629 -0.051932)
 42:    580.44   0.008373   42.31  0.004502  (-0.064138  0.018914 -0.005481)
 43:    599.75   0.007035   35.55  0.003660  ( 0.007427 -0.024807  0.054680)
 44:    612.61   0.000730    3.69  0.000372  (-0.010068 -0.007509  0.014637)
 45:    633.59   0.064482  325.87  0.031759  (-0.164399  0.059791 -0.034022)
 46:    640.23   0.006921   34.98  0.003373  ( 0.041703 -0.006740 -0.039862)
 47:    676.54   0.001865    9.42  0.000860  (-0.011634 -0.017733  0.020255)
 48:    708.74   0.009725   49.14  0.004282  (-0.054537 -0.010142 -0.034708)
 49:    716.38   0.003513   17.75  0.001530  ( 0.037816  0.008490 -0.005302)
 50:    755.32   0.000532    2.69  0.000220  (-0.013309 -0.005207  0.003930)
 51:    771.57   0.009262   46.81  0.003746  ( 0.031307  0.018340 -0.049291)
 52:    871.51   0.002130   10.76  0.000763  (-0.026287  0.007877 -0.003081)
 53:   1007.86   0.014159   71.56  0.004384  (-0.064358  0.001166 -0.015519)
 54:   1060.22   0.045197  228.41  0.013303  (-0.005340 -0.045628 -0.105796)
 55:   1105.43   0.007268   36.73  0.002052  (-0.009395 -0.011931  0.042673)
 56:   1124.80   0.011586   58.55  0.003214  (-0.014078  0.053451  0.012618)
 57:   1132.04   0.042955  217.08  0.011841  (-0.022526 -0.024303  0.103649)
 58:   1133.74   0.097029  490.35  0.026708  (-0.020571 -0.157416  0.038791)
 59:   1142.11   0.049110  248.18  0.013419  ( 0.011501  0.109051 -0.037340)
 60:   1146.80   0.033563  169.61  0.009133  ( 0.009678 -0.095004  0.003692)
 61:   1150.59   0.045362  229.24  0.012303  (-0.007877 -0.043483 -0.101737)
 62:   1153.20   0.220108  1112.33  0.059563  (-0.009832  0.080932  0.230035)
 63:   1175.87   0.003171   16.02  0.000842  ( 0.005054 -0.028561 -0.000460)
 64:   1183.44   0.008071   40.79  0.002128  (-0.033536  0.021715 -0.023064)
 65:   1193.05   0.004768   24.10  0.001247  ( 0.015790  0.025503 -0.018643)
 66:   1222.70   0.044210  223.42  0.011283  (-0.018276  0.096136 -0.041318)
 67:   1240.94   0.019150   96.77  0.004816  (-0.043376  0.051121 -0.017909)
 68:   1258.27   0.014240   71.96  0.003532  ( 0.007775 -0.058246  0.008862)
 69:   1270.27   0.003018   15.25  0.000741  ( 0.017672 -0.015357 -0.013900)
 70:   1316.29   0.003474   17.55  0.000824  (-0.013454  0.025178 -0.002929)
 71:   1358.90   0.021523  108.77  0.004943  (-0.060876  0.009211  0.033938)
 72:   1398.57   0.014389   72.71  0.003211  ( 0.040895 -0.029024 -0.026377)
 73:   1822.62   0.093940  474.73  0.016084  ( 0.042567  0.101349  0.063250)
 74:   3614.07   0.051402  259.77  0.004438  (-0.051923 -0.004348  0.041516)

* The epsilon (eps) is given for a Dirac delta lineshape.
** The dipole moment derivative (T) already includes vibrational overlap.

The first frequency considered to be a vibration is 6
The total number of vibrations considered is 69


--------------------------
THERMOCHEMISTRY AT 298.15K
--------------------------

Temperature         ...   298.15 K
Pressure            ...     1.00 atm
Total Mass          ...   395.07 AMU
Quasi RRHO          ...     True
Cut-Off Frequency   ...     1.00 cm^-1

Throughout the following assumptions are being made:
  (1) The electronic state is orbitally nondegenerate
      but the spin degeneracy is treated
  (2) There are no thermally accessible electronically excited states
  (3) Hindered rotations indicated by low frequency modes are not
      treated as such but are treated as vibrations and this may
      cause some error
  (4) All equations used are the standard statistical mechanics
      equations for an ideal gas
  (5) All vibrations are strictly harmonic

freq.      24.12  E(vib)   ...       0.56 
freq.      31.90  E(vib)   ...       0.55 
freq.      39.13  E(vib)   ...       0.54 
freq.      43.93  E(vib)   ...       0.53 
freq.      52.93  E(vib)   ...       0.52 
freq.      61.29  E(vib)   ...       0.51 
freq.      62.10  E(vib)   ...       0.51 
freq.      73.24  E(vib)   ...       0.49 
freq.     115.76  E(vib)   ...       0.44 
freq.     136.65  E(vib)   ...       0.42 
freq.     157.47  E(vib)   ...       0.40 
freq.     186.07  E(vib)   ...       0.37 
freq.     200.53  E(vib)   ...       0.35 
freq.     203.58  E(vib)   ...       0.35 
freq.     207.24  E(vib)   ...       0.34 
freq.     224.98  E(vib)   ...       0.33 
freq.     238.91  E(vib)   ...       0.32 
freq.     251.86  E(vib)   ...       0.30 
freq.     257.36  E(vib)   ...       0.30 
freq.     263.87  E(vib)   ...       0.29 
freq.     290.38  E(vib)   ...       0.27 
freq.     305.42  E(vib)   ...       0.26 
freq.     314.85  E(vib)   ...       0.25 
freq.     336.11  E(vib)   ...       0.24 
freq.     355.66  E(vib)   ...       0.22 
freq.     363.78  E(vib)   ...       0.22 
freq.     367.07  E(vib)   ...       0.22 
freq.     372.51  E(vib)   ...       0.21 
freq.     376.00  E(vib)   ...       0.21 
freq.     411.64  E(vib)   ...       0.19 
freq.     457.35  E(vib)   ...       0.16 
freq.     512.93  E(vib)   ...       0.13 
freq.     515.94  E(vib)   ...       0.13 
freq.     545.98  E(vib)   ...       0.12 
freq.     555.42  E(vib)   ...       0.12 
freq.     570.32  E(vib)   ...       0.11 
freq.     580.44  E(vib)   ...       0.11 
freq.     599.75  E(vib)   ...       0.10 
freq.     612.61  E(vib)   ...       0.10 
freq.     633.59  E(vib)   ...       0.09 
freq.     640.23  E(vib)   ...       0.09 
freq.     676.54  E(vib)   ...       0.08 
freq.     708.74  E(vib)   ...       0.07 
freq.     716.38  E(vib)   ...       0.07 
freq.     755.32  E(vib)   ...       0.06 
freq.     771.57  E(vib)   ...       0.05 
freq.     871.51  E(vib)   ...       0.04 
freq.    1007.86  E(vib)   ...       0.02 
freq.    1060.22  E(vib)   ...       0.02 
freq.    1105.43  E(vib)   ...       0.02 
freq.    1124.80  E(vib)   ...       0.01 
freq.    1132.04  E(vib)   ...       0.01 
freq.    1133.74  E(vib)   ...       0.01 
freq.    1142.11  E(vib)   ...       0.01 
freq.    1146.80  E(vib)   ...       0.01 
freq.    1150.59  E(vib)   ...       0.01 
freq.    1153.20  E(vib)   ...       0.01 
freq.    1175.87  E(vib)   ...       0.01 
freq.    1183.44  E(vib)   ...       0.01 
freq.    1193.05  E(vib)   ...       0.01 
freq.    1222.70  E(vib)   ...       0.01 
freq.    1240.94  E(vib)   ...       0.01 
freq.    1258.27  E(vib)   ...       0.01 
freq.    1270.27  E(vib)   ...       0.01 
freq.    1316.29  E(vib)   ...       0.01 
freq.    1358.90  E(vib)   ...       0.01 
freq.    1398.57  E(vib)   ...       0.00 
freq.    1822.62  E(vib)   ...       0.00 
freq.    3614.07  E(vib)   ...       0.00 

------------
INNER ENERGY
------------

The inner energy is: U= E(el) + E(ZPE) + E(vib) + E(rot) + E(trans)
    E(el)   - is the total energy from the electronic structure calculation
              = E(kin-el) + E(nuc-el) + E(el-el) + E(nuc-nuc)
    E(ZPE)  - the the zero temperature vibrational energy from the frequency calculation
    E(vib)  - the the finite temperature correction to E(ZPE) due to population
              of excited vibrational states
    E(rot)  - is the rotational thermal energy
    E(trans)- is the translational thermal energy

Summary of contributions to the inner energy U:
Electronic energy                ...  -1853.71724119 Eh
Zero point energy                ...      0.10539428 Eh      66.14 kcal/mol
Thermal vibrational correction   ...      0.02000517 Eh      12.55 kcal/mol
Thermal rotational correction    ...      0.00141627 Eh       0.89 kcal/mol
Thermal translational correction ...      0.00141627 Eh       0.89 kcal/mol
-----------------------------------------------------------------------
Total thermal energy                  -1853.58900920 Eh


Summary of corrections to the electronic energy:
(perhaps to be used in another calculation)
Total thermal correction                  0.02283771 Eh      14.33 kcal/mol
Non-thermal (ZPE) correction              0.10539428 Eh      66.14 kcal/mol
-----------------------------------------------------------------------
Total correction                          0.12823199 Eh      80.47 kcal/mol


--------
ENTHALPY
--------

The enthalpy is H = U + kB*T
                kB is Boltzmann's constant
Total thermal energy              ...  -1853.58900920 Eh 
Thermal Enthalpy correction       ...      0.00094421 Eh       0.59 kcal/mol
-----------------------------------------------------------------------
Total Enthalpy                    ...  -1853.58806499 Eh


Note: Only C1 symmetry has been detected, increase convergence thresholds 
      if your molecule has a higher symmetry. Symmetry factor of 1.0 is   
      used for the rotational entropy correction. 
 

Note: Rotational entropy computed according to Herzberg 
Infrared and Raman Spectra, Chapter V,1, Van Nostrand Reinhold, 1945 
Point Group:  C1, Symmetry Number:   1  
Rotational constants in cm-1:     0.022640     0.004059     0.003967 

Vibrational entropy computed according to the QRRHO of S. Grimme
Chem.Eur.J. 2012 18 9955 using a reference frequency of 100.0 cm-1


-------
ENTROPY
-------

The entropy contributions are T*S = T*(S(el)+S(vib)+S(rot)+S(trans))
     S(el)   - electronic entropy
     S(vib)  - vibrational entropy
     S(rot)  - rotational entropy
     S(trans)- translational entropy
The entropies will be listed as multiplied by the temperature to get
units of energy

Electronic entropy                ...      0.00065446 Eh      0.41 kcal/mol
Vibrational entropy               ...      0.03587158 Eh     22.51 kcal/mol
Rotational entropy                ...      0.01650936 Eh     10.36 kcal/mol
Translational entropy             ...      0.02081703 Eh     13.06 kcal/mol
-----------------------------------------------------------------------
Final entropy term                ...      0.07385243 Eh     46.34 kcal/mol

In case the symmetry of your molecule has not been determined correctly
or in case you have a reason to use a different symmetry number we print 
out the resulting rotational entropy values for sn=1,12:

 non-linear molecules -----------------------------------
|  sn= 1 | S(rot)=       0.01650936 Eh     10.36 kcal/mol|
|  sn= 2 | S(rot)=       0.01585490 Eh      9.95 kcal/mol|
|  sn= 3 | S(rot)=       0.01547207 Eh      9.71 kcal/mol|
|  sn= 4 | S(rot)=       0.01520045 Eh      9.54 kcal/mol|
|  sn= 5 | S(rot)=       0.01498976 Eh      9.41 kcal/mol|
|  sn= 6 | S(rot)=       0.01481762 Eh      9.30 kcal/mol|
|  sn= 7 | S(rot)=       0.01467207 Eh      9.21 kcal/mol|
|  sn= 8 | S(rot)=       0.01454599 Eh      9.13 kcal/mol|
|  sn= 9 | S(rot)=       0.01443478 Eh      9.06 kcal/mol|
|  sn=10 | S(rot)=       0.01433530 Eh      9.00 kcal/mol|
|  sn=11 | S(rot)=       0.01424531 Eh      8.94 kcal/mol|
|  sn=12 | S(rot)=       0.01416316 Eh      8.89 kcal/mol|
 linear molecules ---------------------------------------
|  Dinfh | S(rot)=       0.01054698 Eh      6.62 kcal/mol|
|  Cinfv | S(rot)=       0.01120143 Eh      7.03 kcal/mol|
 --------------------------------------------------------


-------------------
GIBBS FREE ENERGY
-------------------

The Gibbs free energy is G = H - T*S

Total enthalpy                    ...  -1853.58806499 Eh 
Total entropy correction          ...     -0.07385243 Eh    -46.34 kcal/mol
-----------------------------------------------------------------------
Final Gibbs free energy         ...  -1853.66191743 Eh

For completeness - the Gibbs free energy minus the electronic energy
G-E(el)                           ...      0.05532376 Eh     34.72 kcal/mol


Maximum memory used throughout the entire PROP-calculation: 546.5 MB

--------------------------------
SUGGESTED CITATIONS FOR THIS RUN
--------------------------------

Below you find a list of papers that are relevant to this ORCA run
We neither can nor want to force you to cite these papers, but we appreciate if you do
You receive ORCA, which is the product of decades of hard work by many enthusiastic individuals, for free
The only thing we kindly ask in return is that you cite our papers,
We deeply appreciate it, if you show your appreciation for ORCA by not just citing the generic ORCA reference.

Please note that relegating all ORCA citations to the supporting information does *not* help us.
SI sections are not indexed - citations you put there will not count into any citation statistics
But we need these citations in order to attract the funding resources that allow us to do what we are doing

Therefore, if you are a happy ORCA user, please consider citing a few of the papers listed below in the main body of your paper

In addition to the list printed below, the program has created the file rf_mecn_freq_B3L_C8_P_B.bibtex that contains the list in bibtex format
You can import this file easily into all common literature databanks and citation aid programs


List of essential papers. We consider these as the minimum necessary citations

  1. Neese,F.
     Software update: the ORCA program system, version 5.0
     WIRES Comput. Molec. Sci., 2022 12(1)e1606
     doi.org/10.1002/wcms.1606

List of papers to cite with high priority. The work reported in these papers was absolutely
necessary for this run to complete.
Our perspective: the developers of density functionals and basis sets usually get cited in chemistry papers
Good! But without the algorithms to do something with them, the functionals or basis sets would not do anything.
Hence, in our opinion, the algorithm design and method developments papers are equally worthy of getting cited

  1. Neese,F.
     An improvement of the resolution of the identity approximation for the formation of the Coulomb matrix
     J. Comp. Chem., 2003 24(14)1740-1747
     doi.org/10.1002/jcc.10318
  2. Neese,F.; Wennmohs,F.; Hansen,A.; Becker,U.
     Efficient, approximate and parallel Hartree-Fock and hybrid DFT calculations. A 'chain-of-spheres' algorithm for the Hartree-Fock exchange
     Chem. Phys., 2009 356(1-3)98-109
     doi.org/10.1016/j.chemphys.2008.10.036
  3. Bykov,D.; Petrenko,T.; Izsak,R.; Kossmann,S.; Becker,U.; Valeev,E.; Neese,F.
     Efficient implementation of the analytic second derivatives of Hartree-Fock and hybrid DFT energies: a detailed analysis of different approximations
     Molec. Phys., 2015 113 1961-1977
     doi.org/10.1080/00268976.2015.1025114
  4. Garcia-Rates,M.; Neese,F.
     Efficient implementation of the analytical second derivatives of hartree-fock and hybrid DFT energies within the framework of the conductor-like polarizable continuum model
     J. Comput. Chem., 2019 40 1816-1828
     doi.org/10.1002/jcc.25833
  5. Garcia-Rates,M.; Neese,F.
     Effect of the Solute Cavity on the Solvation Energy and its Derivatives within the Framework of the Gaussian Charge Scheme
     J. Comput. Chem., 2020 41 922-939
     doi.org/10.1002/jcc.26139
  6. Helmich-Paris,B.; de Souza,B.; Neese,F.; Izsák,R.
     An improved chain of spheres for exchange algorithm
     J. Chem. Phys., 2021 155 104109
     doi.org/doi: 10.1063/5.0058766.
  7. Neese,F.
     The SHARK Integral Generation and Digestion System
     J. Comp. Chem., 2022  1-16
     doi.org/10.1002/jcc.26942
  8. Grimme,S.; Antony,J.; Ehrlich,S.; Krieg,H.
     A consistent and accurate ab initio parametrization of density functional dispersion correction (DFT-D) for the 94 elements H-Pu
     J. Chem. Phys., 2010 132 154104
     doi.org/10.1063/1.3382344
  9. Grimme,S.; Ehrlich,S.; Goerigk,L.
     Effect of the damping function in dispersion corrected density functional theory
     J. Comput. Chem., 2011 32(7)1456-1465
     doi.org/10.1002/jcc.21759

List of suggested additional citations. These are papers that are important in the 'surrounding' of 
of this run, or papers that preceded the highly important papers. If you like your results we are grateful for a citation.

  1. Izsak,R.; Neese,F.
     An overlap fitted chain of spheres exchange method
     J. Chem. Phys., 2011 135 144105
     doi.org/10.1063/1.3646921
  2. Izsak,R.; Hansen,A.; Neese,F.
     The resolution of identity and chain of spheres approximations for the LPNO-CCSD singles Fock term
     Molec. Phys., 2012 110 2413-2417
     doi.org/10.1080/00268976.2012.687466
  3. Neese,F.
     The ORCA program system
     WIRES Comput. Molec. Sci., 2012 2(1)73-78
     doi.org/10.1002/wcms.81
  4. Izsak,R.; Neese,F.; Klopper,W.
     Robust fitting techniques in the chain of spheres approximation to the Fock exchange: The role of the complementary space
     J. Chem. Phys., 2013 139 
     doi.org/10.1063/1.4819264
  5. Neese,F.
     Software update: the ORCA program system, version 4.0
     WIRES Comput. Molec. Sci., 2018 8(1)1-6
     doi.org/10.1002/wcms.1327
  6. Neese,F.; Wennmohs,F.; Becker,U.; Riplinger,C.
     The ORCA quantum chemistry program package
     J. Chem. Phys., 2020 152 Art. No. L224108
     doi.org/10.1063/5.0004608

List of optional additional citations

  1. Neese,F.
     Approximate second-order SCF convergence for spin unrestricted wavefunctions
     Chem. Phys. Lett., 2000 325(1-3)93-98
     doi.org/10.1016/s0009-2614(00)00662-x

Timings for individual modules:

Sum of individual times          ...     1181.283 sec (=  19.688 min)
Startup calculation              ...        4.254 sec (=   0.071 min)   0.4 %
SCF iterations                   ...       89.675 sec (=   1.495 min)   7.6 %
Property integrals               ...      274.510 sec (=   4.575 min)  23.2 %
SCF Response                     ...      537.941 sec (=   8.966 min)  45.5 %
Property calculations            ...      274.902 sec (=   4.582 min)  23.3 %
                             ****ORCA TERMINATED NORMALLY****
TOTAL RUN TIME: 0 days 0 hours 19 minutes 42 seconds 176 msec
