
                                 *****************
                                 * O   R   C   A *
                                 *****************

                                            #,                                       
                                            ###                                      
                                            ####                                     
                                            #####                                    
                                            ######                                   
                                           ########,                                 
                                     ,,################,,,,,                         
                               ,,#################################,,                 
                          ,,##########################################,,             
                       ,#########################################, ''#####,          
                    ,#############################################,,   '####,        
                  ,##################################################,,,,####,       
                ,###########''''           ''''###############################       
              ,#####''   ,,,,##########,,,,          '''####'''          '####       
            ,##' ,,,,###########################,,,                        '##       
           ' ,,###''''                  '''############,,,                           
         ,,##''                                '''############,,,,        ,,,,,,###''
      ,#''                                            '''#######################'''  
     '                                                          ''''####''''         
             ,#######,   #######,   ,#######,      ##                                
            ,#'     '#,  ##    ##  ,#'     '#,    #''#        ,####,   ,####,        
            ##       ##  ##   ,#'  ##            #'  '#       #'       #'  '#        
            ##       ##  #######   ##           ,######,      #####,   #    #        
            '#,     ,#'  ##    ##  '#,     ,#' ,#      #,     #,   #   #,  ,#        
             '#######'   ##     ##  '#######'  #'      '#     '####' # '####'        



                #########################################################
                #                        -***-                          #
                #          Department of theory and spectroscopy        #
                #                                                       #
                #                      Frank Neese                      #
                #                                                       #
                #     Directorship, Architecture, Infrastructure        #
                #                    SHARK, DRIVERS                     #
                #        Core code/Algorithms in most modules           #
                #                                                       #
                #        Max Planck Institute fuer Kohlenforschung      #
                #                Kaiser Wilhelm Platz 1                 #
                #                 D-45470 Muelheim/Ruhr                 #
                #                      Germany                          #
                #                                                       #
                #                  All rights reserved                  #
                #                        -***-                          #
                #########################################################


                         Program Version 6.0.1  -  RELEASE   -


 With contributions from (in alphabetic order):
[Max-Planck-Institut fuer Kohlenforschung]                               
  Daniel Aravena         : Magnetic Suceptibility                        
  Michael Atanasov       : Ab Initio Ligand Field Theory (pilot matlab implementation)
  Alexander A. Auer      : GIAO ZORA, VPT2 properties, NMR spectrum      
  Ute Becker             : All parallelization in ORCA, NUMFREQ, NUMCALC 
  Giovanni Bistoni       : ED, misc. LED, open-shell LED, HFLD           
  Martin Brehm           : Molecular dynamics                            
  Dmytro Bykov           : pre 5.0 version of the SCF Hessian            
  Marcos Casanova-Páez   : Triplet and SCS-CIS(D). UHF-(DLPNO)-IP/EA/STEOM-CCSD. UHF-CVS-IP/STEOM-CCSD   
  Vijay G. Chilkuri      : MRCI spin determinant printing, contributions to CSF-ICE 
  Pauline Colinet        : FMM embedding                                 
  Dipayan Datta          : RHF DLPNO-CCSD density                        
  Achintya Kumar Dutta   : EOM-CC, STEOM-CC                              
  Nicolas Foglia         : Exact transition moments, OPA infrastructure, MCD improvements    
  Dmitry Ganyushin       : Spin-Orbit,Spin-Spin,Magnetic field MRCI      
  Miquel Garcia-Rates    : C-PCM and meta-GGA Hessian, CCSD/C-PCM, Gaussian charge scheme 
  Tiago L. C. Gouveia    : GS-ROHF, GS-ROCIS                             
  Yang Guo               : DLPNO-NEVPT2, F12-NEVPT2, CIM, IAO-localization        
  Andreas Hansen         : Spin unrestricted coupled pair/coupled cluster methods 
  Ingolf Harden          : AUTO-CI MPn and infrastructure                
  Benjamin Helmich-Paris : MC-RPA, TRAH-(SCF,CASSCF), AVAS, COSX integrals, SCF dyn. polar. 
  Lee Huntington         : MR-EOM, pCC                                   
  Robert Izsak           : Overlap fitted RIJCOSX, COSX-SCS-MP3, EOM     
  Riya Kayal             : Wick's Theorem for AUTO-CI, AUTO-CI UHF-CCSDT 
  Emily Kempfer          : AUTO-CI, RHF CISDT and CCSDT                  
  Christian Kollmar      : KDIIS, OOCD, Brueckner-CCSD(T), CCSD density, CASPT2, CASPT2-K, improved NEVPT2 
  Axel Koslowski         : Symmetry handling                             
  Simone Kossmann        : meta-GGA functionals, TD-DFT gradient, OOMP2, (MP2 Hessian; deprecated post 5.0) 
  Lucas Lang             : DCDCAS                                        
  Marvin Lechner         : AUTO-CI (C++ implementation), FIC-MRCC        
  Spencer Leger          : CASSCF response                               
  Dagmar Lenk            : GEPOL surface, SMD, ORCA-2-JSON               
  Dimitrios Liakos       : Extrapolation schemes; Compound Job, initial MDCI parallelization 
  Dimitrios Manganas     : Further ROCIS development; embedding schemes. LFT, Crystal Embedding 
  Dimitrios Pantazis     : SARC Basis sets                               
  Anastasios Papadopoulos: AUTO-CI, single reference methods and gradients 
  Taras Petrenko         : pre 6.0 DFT Hessian and TD-DFT gradient, (ASA, deprecated), ECA, 1-Electron XAS/XES, NRVS 
  Peter Pinski           : DLPNO-MP2, DLPNO-MP2 Gradient                 
  Christoph Reimann      : Effective Core Potentials                     
  Marius Retegan         : Local ZFS, SOC                                
  Christoph Riplinger    : Optimizer, TS searches, QM/MM, DLPNO-CCSD(T), (RO)-DLPNO pert. Triples 
  Michael Roemelt        : Original ROCIS implementation                 
  Masaaki Saitow         : Open-shell DLPNO-CCSD energy and density      
  Barbara Sandhoefer     : DKH picture change effects                    
  Kantharuban Sivalingam : CASSCF convergence/infrastructure, NEVPT2 and variants, FIC-MRCI 
  Bernardo de Souza      : ESD, SOC TD-DFT                               
  Georgi L. Stoychev     : AutoAux, RI-MP2 NMR, DLPNO-MP2 response, X2C  
  Van Anh Tran           : RI-MP2 g-tensors                              
  Willem Van den Heuvel  : Paramagnetic NMR                              
  Zikuan Wang            : NOTCH, Electric field optimization            
  Frank Wennmohs         : Technical directorship and infrastructure     
  Hang Xu                : AUTO-CI-Response properties                   
                                                                         
[FACCTs GmbH]                                                            
  Markus Bursch, Miquel Garcia-Rates, Christoph Riplinger, Bernardo de Souza, Georgi L. Stoychev 
                                                                 
  APM, Basis sets (HGBS, AHGBS, def-TZVP (Ac-Lr), def2-XVPD (La-Lu)), CI-OPT, improved COSX, DLPNO-Multilevel,           
  DOCKER, DRACO, updates on ESD, GOAT, IRC, LR-CPCM, MBIS, meta-GGA TD-DFT gradient, ML-optimized integration grids, 
  MM, NACMEs, nearIR, NEB, NEB-TS, NL-DFT gradient (VV10), 2- and 3-layer-ONIOM, interface openCOSMO-RS, QMMM,   
  Crystal-QMMM, SF, symmetry and pop. for TD-DFT, r2SCAN hybrids, SOLVATOR                                   
                                                                         
[Other institutions]                                                     
  V. Asgeirsson          : NEB                                           
  Christoph Bannwarth    : sTDA-DFT, sTD-DFT, PBEh-3c, B97-3c, D3        
  Sebastian Ehlert       : rSCAN, r2SCAN, r2SCAN-3c, D4, dhf basis sets  
  Marvin Friede          : D4 for Fr, Ra, Ac-Lr                          
  Lars Goerigk           : TD-DFT with DH, B97 family of functionals     
  Stefan Grimme          : VdW corrections, initial TS optimization, DFT functionals, gCP, sTDA/sTD-DF 
  Waldemar Hujo          : DFT-NL                                        
  H. Jonsson             : NEB                                           
  Holger Kruse           : gCP                                           
  Marcel Mueller         : wB97X-3c, vDZP basis set                      
  Hagen Neugebauer       : wr2SCAN                                       
  Tobias Risthaus        : range-separated hybrid DFT                    
  Lukas Wittmann         : regularized MP2, r2SCAN double-hybrids, wr2SCAN        
                                                                         
We gratefully acknowledge several colleagues who have allowed us to      
interface, adapt or use parts of their codes:                            
  Ed Valeev, F. Pavosevic, A. Kumar             : LibInt (2-el integral package), F12 methods 
  Garnet Chan, S. Sharma, J. Yang, R. Olivares  : DMRG                   
  Ulf Ekstrom                                   : XCFun DFT Library      
  Mihaly Kallay                                 : mrcc  (arbitrary order and MRCC methods)
  Frank Weinhold                                : gennbo (NPA and NBO analysis)           
  Simon Mueller                                 : openCOSMO-RS                            
  Christopher J. Cramer and Donald G. Truhlar   : smd solvation model                     
  S Lehtola, MJT Oliveira, MAL Marques          : LibXC Library                           
  Liviu Ungur et al                             : ANISO software                          


 Your calculation uses the libint2 library for the computation of 2-el integrals
 For citations please refer to: http://libint.valeyev.net

 Your ORCA version has been built with support for libXC version: 6.2.2
 For citations please refer to: https://libxc.gitlab.io

 This ORCA versions uses:
   CBLAS   interface :  Fast vector & matrix operations
   LAPACKE interface :  Fast linear algebra routines
   SCALAPACK package :  Parallel linear algebra routines
   Shared memory     :  Shared parallel matrices
   BLAS/LAPACK       :  OpenBLAS 0.3.27  USE64BITINT DYNAMIC_ARCH NO_AFFINITY SkylakeX SINGLE_THREADED
        Core in use  :  SkylakeX
   Copyright (c) 2011-2014, The OpenBLAS Project


NOTE: MaxCore=8000 MB was set to SCF,MP2,MDCI,CIPSI,MRCI and CIS
      => If you want to overwrite this, your respective input block should be placed after the MaxCore statement
Your calculation utilizes the atom-pairwise dispersion correction
with the Becke-Johnson damping scheme (D3BJ)


Your calculation utilizes the SMD solvation module
Please cite in your paper:
A.V. Marenich, C.J. Cramer, D.G. Truhlar J. Phys. Chem. B, 113, (2009), 6378 

Warning: RI is on but no J-basis has been assigned. Assigning Def2/J (nothing to worry about!)
================================================================================

----- Orbital basis set information -----
Your calculation utilizes the basis: def2-TZVP
   F. Weigend and R. Ahlrichs, Phys. Chem. Chem. Phys. 7, 3297 (2005).

----- AuxJ basis set information -----
Your calculation utilizes the auxiliary basis: def2/J
   F. Weigend, Phys. Chem. Chem. Phys. 8, 1057 (2006).

================================================================================
                                        WARNINGS
                       Please study these warnings very carefully!
================================================================================


WARNING: your system is open-shell and RHF/RKS was chosen
  ===> : WILL SWITCH to UHF/UKS


================================================================================
                                       INPUT FILE
================================================================================
NAME = rf_mecn_1H2O_freq_B3L_con_02.inp
|  1> !B3LYP def2-TZVP freq d3 TightSCF SlowConv defgrid2
|  2>  
|  3> %pal
|  4> nprocs 20
|  5> end
|  6>  
|  7> %scf
|  8> MaxIter 1500
|  9> end
| 10>  
| 11> %maxcore 8000
| 12>  
| 13> !CPCM
| 14> %cpcm smd true
| 15> SMDsolvent "ACETONITRILE"
| 16> end
| 17>  
| 18> * xyz -1 2
| 19> 6        7.924372000     27.241875000      2.905681000
| 20> 6        6.616982000     26.670678000      2.266342000
| 21> 6        6.683450000     25.149310000      1.909250000
| 22> 6        5.296776000     24.472529000      1.625939000
| 23> 6        5.403271000     23.118049000      0.988934000
| 24> 6        5.576561000     21.786483000      1.652605000
| 25> 6        6.769969000     20.942864000      1.114299000
| 26> 6        7.111969000     19.701215000      2.029724000
| 27> 9        8.989550000     26.926978000      2.165261000
| 28> 9        8.097594000     26.769459000      4.139814000
| 29> 9        7.825214000     28.571839000      2.970495000
| 30> 9        5.611703000     26.893346000      3.136646000
| 31> 9        6.377050000     27.368859000      1.139574000
| 32> 9        7.445878000     25.016524000      0.802151000
| 33> 9        7.274410000     24.481549000      2.921567000
| 34> 9        4.619646000     24.388043000      2.793697000
| 35> 9        4.608745000     25.289628000      0.785856000
| 36> 9        5.458807000     23.121480000     -0.333315000
| 37> 9        5.760417000     21.976185000      2.985022000
| 38> 9        4.433173000     21.050067000      1.499619000
| 39> 9        6.463181000     20.545954000     -0.156925000
| 40> 9        7.835630000     21.789803000      1.007723000
| 41> 8        8.060369000     19.863188000      2.800925000
| 42> 8        6.360877000     18.719001000      1.857179000
| 43> 8        4.400020000     18.156145000     -0.000002000
| 44> 1        4.221685000     18.975745000     -0.475572000
| 45> 1        5.095606000     18.401791000      0.649493000
| 46> *
| 47> 
| 48>                          ****END OF INPUT****
================================================================================

                       ****************************
                       * Single Point Calculation *
                       ****************************

---------------------------------
CARTESIAN COORDINATES (ANGSTROEM)
---------------------------------
  C      7.924372   27.241875    2.905681
  C      6.616982   26.670678    2.266342
  C      6.683450   25.149310    1.909250
  C      5.296776   24.472529    1.625939
  C      5.403271   23.118049    0.988934
  C      5.576561   21.786483    1.652605
  C      6.769969   20.942864    1.114299
  C      7.111969   19.701215    2.029724
  F      8.989550   26.926978    2.165261
  F      8.097594   26.769459    4.139814
  F      7.825214   28.571839    2.970495
  F      5.611703   26.893346    3.136646
  F      6.377050   27.368859    1.139574
  F      7.445878   25.016524    0.802151
  F      7.274410   24.481549    2.921567
  F      4.619646   24.388043    2.793697
  F      4.608745   25.289628    0.785856
  F      5.458807   23.121480   -0.333315
  F      5.760417   21.976185    2.985022
  F      4.433173   21.050067    1.499619
  F      6.463181   20.545954   -0.156925
  F      7.835630   21.789803    1.007723
  O      8.060369   19.863188    2.800925
  O      6.360877   18.719001    1.857179
  O      4.400020   18.156145   -0.000002
  H      4.221685   18.975745   -0.475572
  H      5.095606   18.401791    0.649493

----------------------------
CARTESIAN COORDINATES (A.U.)
----------------------------
  NO LB      ZA    FRAG     MASS         X           Y           Z
   0 C     6.0000    0    12.011   14.974893   51.479683    5.490941
   1 C     6.0000    0    12.011   12.504284   50.400277    4.282766
   2 C     6.0000    0    12.011   12.629890   47.525308    3.607960
   3 C     6.0000    0    12.011   10.009456   46.246378    3.072579
   4 C     6.0000    0    12.011   10.210702   43.686781    1.868814
   5 C     6.0000    0    12.011   10.538173   41.170486    3.122971
   6 C     6.0000    0    12.011   12.793387   39.576277    2.105720
   7 C     6.0000    0    12.011   13.439674   37.229901    3.835622
   8 F     9.0000    0    18.998   16.987788   50.884614    4.091750
   9 F     9.0000    0    18.998   15.302235   50.586946    7.823115
  10 F     9.0000    0    18.998   14.787511   53.992951    5.613422
  11 F     9.0000    0    18.998   10.604582   50.821059    5.927402
  12 F     9.0000    0    18.998   12.050878   51.719648    2.153483
  13 F     9.0000    0    18.998   14.070670   47.274379    1.515846
  14 F     9.0000    0    18.998   13.746643   46.263423    5.520962
  15 F     9.0000    0    18.998    8.729866   46.086722    5.279322
  16 F     9.0000    0    18.998    8.709266   47.790471    1.485053
  17 F     9.0000    0    18.998   10.315650   43.693265   -0.629874
  18 F     9.0000    0    18.998   10.885611   41.528971    5.640874
  19 F     9.0000    0    18.998    8.377483   39.778862    2.833869
  20 F     9.0000    0    18.998   12.213642   38.826226   -0.296545
  21 F     9.0000    0    18.998   14.807195   41.176760    1.904320
  22 O     8.0000    0    15.999   15.231890   37.535985    5.292981
  23 O     8.0000    0    15.999   12.020316   35.373785    3.509560
  24 O     8.0000    0    15.999    8.314833   34.310142   -0.000004
  25 H     1.0000    0     1.008    7.977828   35.858961   -0.898701
  26 H     1.0000    0     1.008    9.629300   34.774345    1.227364

--------------------------------
INTERNAL COORDINATES (ANGSTROEM)
--------------------------------
 C      0   0   0     0.000000000000     0.00000000     0.00000000
 C      1   0   0     1.563422202039     0.00000000     0.00000000
 C      2   1   0     1.564127003447   114.40520423     0.00000000
 C      3   2   1     1.568809238549   115.04132569   164.67775033
 C      4   3   2     1.500577430675   113.78640933   166.81173196
 C      5   4   3     1.497850671027   128.50270108    86.00716020
 C      6   5   4     1.557462365921   114.64763066   232.76319831
 C      7   6   5     1.580082013639   113.03258328   167.67258344
 F      1   2   3     1.334910509620   110.74823523    50.96203902
 F      1   2   3     1.332766671263   110.96855883   289.70759134
 F      1   2   3     1.335229345414   108.76326865   170.39371155
 F      2   1   3     1.348182464832   107.41063739   122.22449109
 F      2   1   3     1.347082105593   107.55616549   239.13913173
 F      3   2   1     1.350776359277   107.86155858   285.22750057
 F      3   2   1     1.349045656459   109.19325258    43.07888558
 F      4   3   2     1.352516790158   108.27316442   289.72398363
 F      4   3   2     1.358961691753   107.44342951    46.76225159
 F      5   4   3     1.323419221962   115.13605929   272.01321998
 F      6   5   4     1.358353760781   109.03400448   354.11019894
 F      6   5   4     1.368593935320   109.40008696   111.21130291
 F      7   6   5     1.366626094885   107.86679647   290.84930801
 F      7   6   5     1.365392793455   106.80014277    44.90648815
 O      8   7   6     1.233064797620   115.18867547   260.63468139
 O      8   7   6     1.248461177324   114.07575304    79.94606992
 O     24   8   7     2.758783847630   132.93439143     8.32096487
 H     25  24   8     0.964216965794   106.86185031   348.62138612
 H     25  24   8     0.982866011080     2.72987975   342.96434047

---------------------------
INTERNAL COORDINATES (A.U.)
---------------------------
 C      0   0   0     0.000000000000     0.00000000     0.00000000
 C      1   0   0     2.954439793547     0.00000000     0.00000000
 C      2   1   0     2.955771675186   114.40520423     0.00000000
 C      3   2   1     2.964619817224   115.04132569   164.67775033
 C      4   3   2     2.835680386718   113.78640933   166.81173196
 C      5   4   3     2.830527557752   128.50270108    86.00716020
 C      6   5   4     2.943177335480   114.64763066   232.76319831
 C      7   6   5     2.985922274913   113.03258328   167.67258344
 F      1   2   3     2.522615276474   110.74823523    50.96203902
 F      1   2   3     2.518564009105   110.96855883   289.70759134
 F      1   2   3     2.523217788808   108.76326865   170.39371155
 F      2   1   3     2.547695637088   107.41063739   122.22449109
 F      2   1   3     2.545616259477   107.55616549   239.13913173
 F      3   2   1     2.552597387208   107.86155858   285.22750057
 F      3   2   1     2.549326832863   109.19325258    43.07888558
 F      4   3   2     2.555886324929   108.27316442   289.72398363
 F      4   3   2     2.568065423903   107.44342951    46.76225159
 F      5   4   3     2.500899889875   115.13605929   272.01321998
 F      6   5   4     2.566916600859   109.03400448   354.11019894
 F      6   5   4     2.586267726301   109.40008696   111.21130291
 F      7   6   5     2.582549046802   107.86679647   290.84930801
 F      7   6   5     2.580218444859   106.80014277    44.90648815
 O      8   7   6     2.330154772881   115.18867547   260.63468139
 O      8   7   6     2.359249713975   114.07575304    79.94606992
 O     24   8   7     5.213345934707   132.93439143     8.32096487
 H     25  24   8     1.822105999031   106.86185031   348.62138612
 H     25  24   8     1.857347587281     2.72987975   342.96434047

---------------------
BASIS SET INFORMATION
---------------------
There are 4 groups of distinct atoms

 Group   1 Type C   : 11s6p2d1f contracted to 5s3p2d1f pattern {62111/411/11/1}
 Group   2 Type F   : 11s6p2d1f contracted to 5s3p2d1f pattern {62111/411/11/1}
 Group   3 Type O   : 11s6p2d1f contracted to 5s3p2d1f pattern {62111/411/11/1}
 Group   4 Type H   : 5s1p contracted to 3s1p pattern {311/1}

Atom   0C    basis set group =>   1
Atom   1C    basis set group =>   1
Atom   2C    basis set group =>   1
Atom   3C    basis set group =>   1
Atom   4C    basis set group =>   1
Atom   5C    basis set group =>   1
Atom   6C    basis set group =>   1
Atom   7C    basis set group =>   1
Atom   8F    basis set group =>   2
Atom   9F    basis set group =>   2
Atom  10F    basis set group =>   2
Atom  11F    basis set group =>   2
Atom  12F    basis set group =>   2
Atom  13F    basis set group =>   2
Atom  14F    basis set group =>   2
Atom  15F    basis set group =>   2
Atom  16F    basis set group =>   2
Atom  17F    basis set group =>   2
Atom  18F    basis set group =>   2
Atom  19F    basis set group =>   2
Atom  20F    basis set group =>   2
Atom  21F    basis set group =>   2
Atom  22O    basis set group =>   3
Atom  23O    basis set group =>   3
Atom  24O    basis set group =>   3
Atom  25H    basis set group =>   4
Atom  26H    basis set group =>   4
---------------------------------
AUXILIARY/J BASIS SET INFORMATION
---------------------------------
There are 4 groups of distinct atoms

 Group   1 Type C   : 12s5p4d2f1g contracted to 6s4p3d1f1g pattern {711111/2111/211/2/1}
 Group   2 Type F   : 12s5p4d2f1g contracted to 6s4p3d1f1g pattern {711111/2111/211/2/1}
 Group   3 Type O   : 12s5p4d2f1g contracted to 6s4p3d1f1g pattern {711111/2111/211/2/1}
 Group   4 Type H   : 5s2p1d contracted to 3s1p1d pattern {311/2/1}

Atom   0C    basis set group =>   1
Atom   1C    basis set group =>   1
Atom   2C    basis set group =>   1
Atom   3C    basis set group =>   1
Atom   4C    basis set group =>   1
Atom   5C    basis set group =>   1
Atom   6C    basis set group =>   1
Atom   7C    basis set group =>   1
Atom   8F    basis set group =>   2
Atom   9F    basis set group =>   2
Atom  10F    basis set group =>   2
Atom  11F    basis set group =>   2
Atom  12F    basis set group =>   2
Atom  13F    basis set group =>   2
Atom  14F    basis set group =>   2
Atom  15F    basis set group =>   2
Atom  16F    basis set group =>   2
Atom  17F    basis set group =>   2
Atom  18F    basis set group =>   2
Atom  19F    basis set group =>   2
Atom  20F    basis set group =>   2
Atom  21F    basis set group =>   2
Atom  22O    basis set group =>   3
Atom  23O    basis set group =>   3
Atom  24O    basis set group =>   3
Atom  25H    basis set group =>   4
Atom  26H    basis set group =>   4


           ************************************************************
           *        Program running with 20 parallel MPI-processes    *
           *              working on a common directory               *
           ************************************************************
------------------------------------------------------------------------------
                             ORCA STARTUP CALCULATIONS
                           -- RI-GTO INTEGRALS CHOSEN --
------------------------------------------------------------------------------
------------------------------------------------------------------------------
                   ___                                                        
                  /   \      - P O W E R E D   B Y -                         
                 /     \                                                     
                 |  |  |   _    _      __       _____    __    __             
                 |  |  |  | |  | |    /  \     |  _  \  |  |  /  |          
                  \  \/   | |  | |   /    \    | | | |  |  | /  /          
                 / \  \   | |__| |  /  /\  \   | |_| |  |  |/  /          
                |  |  |   |  __  | /  /__\  \  |    /   |      \           
                |  |  |   | |  | | |   __   |  |    \   |  |\   \          
                \     /   | |  | | |  |  |  |  | |\  \  |  | \   \       
                 \___/    |_|  |_| |__|  |__|  |_| \__\ |__|  \__/        
                                                                              
                      - O R C A' S   B I G   F R I E N D -                    
                                      &                                       
                       - I N T E G R A L  F E E D E R -                       
                                                                              
 v1 FN, 2020, v2 2021, v3 2022-2024                                           
------------------------------------------------------------------------------


----------------------
SHARK INTEGRAL PACKAGE
----------------------

Number of atoms                             ...     27
Number of basis functions                   ...    787
Number of shells                            ...    283
Maximum angular momentum                    ...      3
Integral batch strategy                     ... SHARK/LIBINT Hybrid
RI-J (if used) integral strategy            ... SPLIT-RIJ (Revised 2003 algorithm where possible)
Printlevel                                  ...      1
Contraction scheme used                     ... SEGMENTED contraction
Prescreening option                         ... SCHWARTZ
   Thresh                                   ... 2.500e-11
   Tcut                                     ... 2.500e-12
   Tpresel                                  ... 2.500e-12 
Coulomb Range Separation                    ... NOT USED
Exchange Range Separation                   ... NOT USED
Multipole approximations                    ... NOT USED
Finite Nucleus Model                        ... NOT USED
CABS basis                                  ... NOT available
Auxiliary Coulomb fitting basis             ... AVAILABLE
   # of basis functions in Aux-J            ...   1247
   # of shells in Aux-J                     ...    385
   Maximum angular momentum in Aux-J        ...      4
Auxiliary J/K fitting basis                 ... NOT available
Auxiliary Correlation fitting basis         ... NOT available
Auxiliary 'external' fitting basis          ... NOT available

Checking pre-screening integrals            ... done (  0.0 sec) Dimension = 283
Check shell pair data                       ... done (  0.0 sec)
Shell pair information
Shell pair cut-off parameter TPreSel        ...   2.5e-12
Total number of shell pairs                 ...     40186
Shell pairs after pre-screening             ...     24588
Total number of primitive shell pairs       ...    131884
Primitive shell pairs kept                  ...     51458
          la=0 lb=0:   4789 shell pairs
          la=1 lb=0:   6777 shell pairs
          la=1 lb=1:   2314 shell pairs
          la=2 lb=0:   3619 shell pairs
          la=2 lb=1:   2623 shell pairs
          la=2 lb=2:    724 shell pairs
          la=3 lb=0:   1655 shell pairs
          la=3 lb=1:   1264 shell pairs
          la=3 lb=2:    659 shell pairs
          la=3 lb=3:    164 shell pairs

Calculating one electron integrals          ... done (  0.1 sec)
Calculating RI/J V-Matrix + Cholesky decomp.... done (  0.2 sec)
Calculating Nuclear repulsion               ... done (  0.0 sec) ENN=   2847.582536358298 Eh

Diagonalization of the overlap matrix:
Smallest eigenvalue                        ... 7.516e-05
Time for diagonalization                   ...    0.190 sec
Threshold for overlap eigenvalues          ... 1.000e-07
Number of eigenvalues below threshold      ... 0
Time for construction of square roots      ...    0.051 sec
Total time needed                          ...    0.260 sec

-------------------
DFT GRID GENERATION
-------------------

General Integration Accuracy     IntAcc      ... 4.388
Radial Grid Type                 RadialGrid  ... OptM3 with GC (2021)
Angular Grid (max. ang.)         AngularGrid ... 4 (Lebedev-302)
Angular grid pruning method      GridPruning ... 4 (adaptive)
Weight generation scheme         WeightScheme... mBecke (2022)
Basis function cutoff            BFCut       ... 1.0000e-11
Integration weight cutoff        WCut        ... 1.0000e-14
Partially contracted basis set               ... off
Rotationally invariant grid construction     ... off
Angular grids for H and He will be reduced by one unit

Total number of grid points                  ...   157982
Total number of batches                      ...     2482
Average number of points per batch           ...       63
Average number of grid points per atom       ...     5851

--------------------
COSX GRID GENERATION
--------------------

GRIDX 1
-------
General Integration Accuracy     IntAcc      ... 3.816
Radial Grid Type                 RadialGrid  ... OptM3 with GC (2021)
Angular Grid (max. ang.)         AngularGrid ... 1 (Lebedev-50)
Angular grid pruning method      GridPruning ... 4 (adaptive)
Weight generation scheme         WeightScheme... mBecke (2022)
Basis function cutoff            BFCut       ... 1.0000e-11
Integration weight cutoff        WCut        ... 1.0000e-14
Partially contracted basis set               ... on
Rotationally invariant grid construction     ... off
Angular grids for H and He will be reduced by one unit

Total number of grid points                  ...    19863
Total number of batches                      ...      167
Average number of points per batch           ...      118
Average number of grid points per atom       ...      736
UseSFitting                                  ... on

GRIDX 2
-------
General Integration Accuracy     IntAcc      ... 4.020
Radial Grid Type                 RadialGrid  ... OptM3 with GC (2021)
Angular Grid (max. ang.)         AngularGrid ... 2 (Lebedev-110)
Angular grid pruning method      GridPruning ... 4 (adaptive)
Weight generation scheme         WeightScheme... mBecke (2022)
Basis function cutoff            BFCut       ... 1.0000e-11
Integration weight cutoff        WCut        ... 1.0000e-14
Partially contracted basis set               ... on
Rotationally invariant grid construction     ... off
Angular grids for H and He will be reduced by one unit

Total number of grid points                  ...    46499
Total number of batches                      ...      377
Average number of points per batch           ...      123
Average number of grid points per atom       ...     1722
UseSFitting                                  ... on

GRIDX 3
-------
General Integration Accuracy     IntAcc      ... 4.338
Radial Grid Type                 RadialGrid  ... OptM3 with GC (2021)
Angular Grid (max. ang.)         AngularGrid ... 3 (Lebedev-194)
Angular grid pruning method      GridPruning ... 4 (adaptive)
Weight generation scheme         WeightScheme... mBecke (2022)
Basis function cutoff            BFCut       ... 1.0000e-11
Integration weight cutoff        WCut        ... 1.0000e-14
Partially contracted basis set               ... on
Rotationally invariant grid construction     ... off
Angular grids for H and He will be reduced by one unit

Total number of grid points                  ...   102898
Total number of batches                      ...      816
Average number of points per batch           ...      126
Average number of grid points per atom       ...     3811
UseSFitting                                  ... on
Initializing property integral containers    ... done (  0.0 sec)

SHARK setup successfully completed in   3.9 seconds

Maximum memory used throughout the entire STARTUP-calculation: 61.5 MB


           ************************************************************
           *        Program running with 20 parallel MPI-processes    *
           *              working on a common directory               *
           ************************************************************
-------------------------------------------------------------------------------
                                 ORCA GUESS
                   Start orbitals & Density for SCF / CASSCF
-------------------------------------------------------------------------------

------------
SCF SETTINGS
------------
Hamiltonian:
 Density Functional     Method          .... DFT(GTOs)
 Exchange Functional    Exchange        .... B88
   X-Alpha parameter    XAlpha          ....  0.666667
   Becke's b parameter  XBeta           ....  0.004200
 Correlation Functional Correlation     .... LYP
 LDA part of GGA corr.  LDAOpt          .... VWN-5
 Gradients option       PostSCFGGA      .... off
 Hybrid DFT is turned on
   Fraction HF Exchange ScalHFX         ....  0.200000
   Scaling of DF-GGA-X  ScalDFX         ....  0.720000
   Scaling of DF-GGA-C  ScalDFC         ....  0.810000
   Scaling of DF-LDA-C  ScalLDAC        ....  1.000000
   Perturbative correction              ....  0.000000
   NL short-range parameter             ....  4.800000
 RI-approximation to the Coulomb term is turned on
   Number of AuxJ basis functions       .... 1247
   RIJ-COSX (HFX calculated with COS-X)).... on


General Settings:
 Integral files         IntName         .... rf_mecn_1H2O_freq_B3L_con_02
 Hartree-Fock type      HFTyp           .... UHF
 Total Charge           Charge          ....   -1
 Multiplicity           Mult            ....    2
 Number of Electrons    NEL             ....  201
 Basis Dimension        Dim             ....  787
 Nuclear Repulsion      ENuc            ....   2847.5825363583 Eh

Convergence Acceleration:
 AO-DIIS                CNVDIIS         .... on
   Start iteration      DIISMaxIt       ....     0
   Startup error        DIISStart       ....  0.200000
   # of expansion vecs  DIISMaxEq       ....     5
   Bias factor          DIISBfac        ....   1.050
   Max. coefficient     DIISMaxC        ....  10.000
 MO-DIIS                CNVKDIIS        .... off
 Trust-Rad. Augm. Hess. CNVTRAH         .... auto
   Auto Start mean grad. ratio tolernc. ....  1.125000
   Auto Start start iteration           ....    50
   Auto Start num. interpolation iter.  ....    10
   Max. Number of Micro iterations      ....    24
   Max. Number of Macro iterations      .... Maxiter - #DIIS iter
   Number of Davidson start vectors     ....     2
   Converg. threshold    (grad. norm)   ....   1.000e-05
   Grad. Scal. Fac. for Micro threshold ....   0.100
   Minimum threshold for Micro iter.    ....   1.000e-02
   NR start threshold (gradient norm)   ....   1.000e-04
   Initial trust radius                 ....   0.400
   Minimum AH scaling param. (alpha)    ....   1.000
   Maximum AH scaling param. (alpha)    .... 1000.000
   Quad. conv. algorithm                .... NR
   White noise on init. David. guess    .... on
   Maximum white noise                  ....   0.010
   Pseudo random numbers                .... off
   Inactive MOs                         .... canonical
   Orbital update algorithm             .... Taylor
   Preconditioner                       .... Diag
   Full preconditioner red. dimension   ....   250
 SOSCF                  CNVSOSCF        .... on
   Start iteration      SOSCFMaxIt      ....   150
   Startup grad/error   SOSCFStart      ....  0.001000
   Hessian update       SOSCFHessUp     .... L-BFGS
 Level Shifting         CNVShift        .... on
   Level shift para.    LevelShift      ....    0.2500
   Turn off err/grad.   ShiftErr        ....    0.0000
 Zerner damping         CNVZerner       .... off
 Static damping         CNVDamp         .... on
   Fraction old density DampFac         ....    0.8500
   Max. Damping (<1)    DampMax         ....    0.9800
   Min. Damping (>=0)   DampMin         ....    0.0000
   Turn off err/grad.   DampErr         ....    0.0300

SCF Procedure:
 Maximum # iterations   MaxIter         ....  1500
 SCF integral mode      SCFMode         .... Direct
   Integral package                     .... SHARK and LIBINT hybrid scheme
 Reset frequency        DirectResetFreq ....    20
 Integral Threshold     Thresh          ....  2.500e-11 Eh
 Primitive CutOff       TCut            ....  2.500e-12 Eh

Convergence Tolerance:
 Convergence Check Mode ConvCheckMode   .... Total+1el-Energy
 Convergence forced     ConvForced      .... 0
 Energy Change          TolE            ....  1.000e-08 Eh
 1-El. energy change                    ....  1.000e-05 Eh
 Orbital Gradient       TolG            ....  1.000e-05
 Orbital Rotation angle TolX            ....  1.000e-05
 DIIS Error             TolErr          ....  5.000e-07

------------------------------
INITIAL GUESS: MODEL POTENTIAL
------------------------------
Loading Hartree-Fock densities                     ... done
Calculating cut-offs                               ... done
Initializing the effective Hamiltonian             ... done
Setting up the integral package (SHARK)            ... done
Starting the Coulomb interaction                   ... done (   0.4 sec)
Making the grid                                    ... done (   0.4 sec)
Mapping shells                                     ... done
Starting the XC term evaluation                    ... done (   0.1 sec)
  promolecular density results
     # of electrons  =    199.997475814
     EX              =   -207.056558311
     EC              =     -7.488885777
     EX+EC           =   -214.545444088
Transforming the Hamiltonian                       ... done (   0.1 sec)
Diagonalizing the Hamiltonian                      ... done (   0.2 sec)
Back transforming the eigenvectors                 ... done (   0.0 sec)
Now organizing SCF variables                       ... done
                      ------------------
                      INITIAL GUESS DONE (   1.3 sec)
                      ------------------
             **** ENERGY FILE WAS UPDATED (rf_mecn_1H2O_freq_B3L_con_02.en.tmp) ****
Finished Guess after   2.1 sec
Maximum memory used throughout the entire GUESS-calculation: 50.7 MB


           ************************************************************
           *        Program running with 20 parallel MPI-processes    *
           *              working on a common directory               *
           ************************************************************

-------------------------------------------------------------------------------------------
                                      ORCA LEAN-SCF
                              memory conserving SCF solver
-------------------------------------------------------------------------------------------

--------------------
CPCM SOLVATION MODEL
--------------------
CPCM parameters:
  Epsilon                                         ...      35.6880
  Refrac                                          ...       1.3442
  Rsolv                                           ...       1.3000
  Surface type                                    ... GAUSSIAN VDW
  Discretization scheme                           ... Constant charge density
    Threshold for H atoms                         ...       5.0000 (charges/Ang^2)
    Threshold for non-H atoms                     ...       5.0000 (charges/Ang^2)
  Epsilon function type                           ...         CPCM
Solvent:                                          ... ACETONITRILE
SMD-CDS solvent descriptors:
  Soln                                            ...       1.3442
  Soln25                                          ...       1.3416
  Sola                                            ...       0.0700
  Solb                                            ...       0.3200
  Solg                                            ...      41.2500
  Solc                                            ...       0.0000
  Solh                                            ...       0.0000
Radii:
  Scheme                                          ... Element-dependent radii
  Radius for C  used is    3.4960 Bohr (=   1.8500 Ang.)
  Radius for F  used is    3.2692 Bohr (=   1.7300 Ang.)
  Radius for O  used is    4.0969 Bohr (=   2.1680 Ang.)
  Radius for H  used is    2.2677 Bohr (=   1.2000 Ang.)
Calculating surface                               ...        done! (  0.0s)
Cavity surface points                             ...         2406
Cavity Volume                                     ...    2349.1162
Cavity Surface-area                               ...    1208.1911
Calculating surface distance matrix               ...        done! (  0.0s)
Performing Cholesky decomposition & store         ...        done! (  0.1s)
Overall time for CPCM initialization              ...                 0.2s

----------------------------------------D-I-I-S--------------------------------------------
Iteration    Energy (Eh)           Delta-E    RMSDP     MaxDP     DIISErr   Damp  Time(sec)
-------------------------------------------------------------------------------------------
               ***  Starting incremental Fock matrix formation  ***
    1    -1929.0599373112827379     0.00e+00  2.68e-04  2.91e-02  1.75e-01  0.850   7.1
Warning: op=0 Small HOMO/LUMO gap (   0.090) - skipping pre-diagonalization
         Will do a full diagonalization
    2    -1929.2529692378384425    -1.93e-01  3.42e-04  6.07e-02  1.23e-01  0.850   4.6
                               ***Turning on AO-DIIS***
    3    -1929.3591089627661859    -1.06e-01  1.74e-04  3.47e-02  7.67e-02  0.850   4.2
    4    -1929.4231608487943959    -6.41e-02  9.42e-05  1.70e-02  5.78e-02  0.850   4.0
    5    -1929.4687951058340332    -4.56e-02  5.76e-05  7.51e-03  4.72e-02  0.850   3.7
    6    -1929.5048752050824987    -3.61e-02  4.18e-05  2.92e-03  4.00e-02  0.850   3.6
    7    -1929.5347588012646156    -2.99e-02  3.54e-05  2.89e-03  3.43e-02  0.850   3.7
    8    -1929.5598828466272607    -2.51e-02  3.12e-05  2.65e-03  2.91e-02  0.850   3.7
    9    -1929.5808209080769302    -2.09e-02  1.80e-04  1.52e-02  2.43e-02  0.000   3.6
   10    -1929.6905116881180220    -1.10e-01  1.54e-05  2.35e-03  3.48e-03  0.000   3.9
                              *** Initializing SOSCF ***
---------------------------------------S-O-S-C-F--------------------------------------
Iteration    Energy (Eh)           Delta-E    RMSDP     MaxDP     MaxGrad    Time(sec)
--------------------------------------------------------------------------------------
   11    -1929.6906696521027698    -1.58e-04  8.92e-06  1.74e-03  7.42e-04     3.9
               *** Restarting incremental Fock matrix formation ***
   12    -1929.6906568385293212     1.28e-05  1.04e-05  9.38e-04  7.67e-04     6.6
   13    -1929.6906545105548503     2.33e-06  7.31e-06  9.53e-04  8.68e-04     4.6
   14    -1929.6906698879893156    -1.54e-05  2.26e-06  1.57e-04  1.13e-04     4.7
   15    -1929.6906695163452241     3.72e-07  1.07e-06  9.90e-05  9.18e-05     4.1
   16    -1929.6906703864506198    -8.70e-07  4.76e-07  5.39e-05  1.58e-05     3.8
   17    -1929.6906704122120573    -2.58e-08  1.84e-07  2.61e-05  1.83e-05     3.5
   18    -1929.6906704156026535    -3.39e-09  1.22e-07  1.31e-05  3.05e-06     3.1
                 **** Energy Check signals convergence ****

               *****************************************************
               *                     SUCCESS                       *
               *           SCF CONVERGED AFTER  18 CYCLES          *
               *****************************************************

Recomputing exchange energy using gridx3       ... done (    7.965 sec)
Old exchange energy                            :    -41.587204169 Eh
New exchange energy                            :    -41.587238357 Eh
Exchange energy change after final integration :     -0.000034188 Eh
Total energy after final integration           :  -1929.690704603 Eh

SMD CDS free energy correction energy :                 2.88575     Kcal/mol
Total Energy after SMD CDS correction =             -1929.686105871 Eh
             **** ENERGY FILE WAS UPDATED (rf_mecn_1H2O_freq_B3L_con_02.en.tmp) ****

----------------
TOTAL SCF ENERGY
----------------

Total Energy       :      -1929.68610587113494 Eh          -52509.42847 eV

Components:
Nuclear Repulsion  :       2847.58253635829806 Eh           77486.66016 eV
Electronic Energy  :      -4777.19138684991049 Eh         -129993.98640 eV
One Electron Energy:      -8374.32848445190393 Eh         -227877.06311 eV
Two Electron Energy:       3597.13709760199390 Eh           97883.07671 eV
CPCM Dielectric    :         -0.08181992399020 Eh              -2.22643 eV
SMD CDS (Gcds)     :          0.00459873221254 Eh               0.12514 eV

Virial components:
Potential Energy   :      -3852.81370026351306 Eh         -104840.39077 eV
Kinetic Energy     :       1923.12759439237789 Eh           52330.96230 eV
Virial Ratio       :          2.00341033610972

DFT components:
N(Alpha)           :      100.999956969296 electrons
N(Beta)            :       99.999966332537 electrons
N(Total)           :      200.999923301834 electrons
E(X)               :     -165.738442326491 Eh       
E(C)               :       -8.788824724940 Eh       
E(XC)              :     -174.527267051431 Eh       

CPCM Solvation Model Properties:
Surface-charge          :          0.98980084559042
Corrected charge        :          1.00000000000000
Outlying charge corr.   :          0.00000551115386 Eh               0.00015 eV
Free-energy (cav+disp)  :          0.00459873221254 Eh               0.12514 eV

---------------
SCF CONVERGENCE
---------------

  Last Energy change         ...    3.3906e-09  Tolerance :   1.0000e-08
  Last MAX-Density change    ...    1.3139e-05  Tolerance :   1.0000e-07
  Last RMS-Density change    ...    1.2206e-07  Tolerance :   5.0000e-09
  Last DIIS Error            ...    7.4172e-04  Tolerance :   5.0000e-07
  Last Orbital Gradient      ...    3.0528e-06  Tolerance :   1.0000e-05
  Last Orbital Rotation      ...    3.8961e-05  Tolerance :   1.0000e-05


----------------------
UHF SPIN CONTAMINATION
----------------------

Warning: in a DFT calculation there is little theoretical justification to 
         calculate <S**2> as in Hartree-Fock theory. We will do it anyways
         but you should keep in mind that the values have only limited relevance

Expectation value of <S**2>     :     0.754095
Ideal value S*(S+1) for S=0.5   :     0.750000
Deviation                       :     0.004095

----------------
ORBITAL ENERGIES
----------------
                 SPIN UP ORBITALS
  NO   OCC          E(Eh)            E(eV) 
   0   1.0000     -24.748585      -673.4432 
   1   1.0000     -24.743826      -673.3137 
   2   1.0000     -24.742767      -673.2849 
   3   1.0000     -24.742099      -673.2668 
   4   1.0000     -24.741431      -673.2486 
   5   1.0000     -24.740800      -673.2314 
   6   1.0000     -24.740152      -673.2138 
   7   1.0000     -24.739807      -673.2044 
   8   1.0000     -24.732966      -673.0182 
   9   1.0000     -24.732522      -673.0061 
  10   1.0000     -24.721648      -672.7102 
  11   1.0000     -24.714262      -672.5093 
  12   1.0000     -24.701919      -672.1734 
  13   1.0000     -24.701618      -672.1652 
  14   1.0000     -19.084864      -519.3256 
  15   1.0000     -19.073640      -519.0201 
  16   1.0000     -19.069818      -518.9161 
  17   1.0000     -10.459761      -284.6246 
  18   1.0000     -10.404972      -283.1337 
  19   1.0000     -10.402256      -283.0598 
  20   1.0000     -10.401799      -283.0473 
  21   1.0000     -10.381300      -282.4895 
  22   1.0000     -10.347107      -281.5591 
  23   1.0000     -10.317889      -280.7640 
  24   1.0000     -10.264430      -279.3093 
  25   1.0000      -1.352324       -36.7986 
  26   1.0000      -1.322970       -35.9998 
  27   1.0000      -1.306933       -35.5635 
  28   1.0000      -1.301629       -35.4191 
  29   1.0000      -1.291917       -35.1549 
  30   1.0000      -1.284051       -34.9408 
  31   1.0000      -1.265414       -34.4337 
  32   1.0000      -1.264857       -34.4185 
  33   1.0000      -1.259272       -34.2665 
  34   1.0000      -1.255704       -34.1694 
  35   1.0000      -1.248263       -33.9670 
  36   1.0000      -1.242131       -33.8001 
  37   1.0000      -1.228283       -33.4233 
  38   1.0000      -1.208195       -32.8767 
  39   1.0000      -1.035739       -28.1839 
  40   1.0000      -0.969984       -26.3946 
  41   1.0000      -0.951323       -25.8868 
  42   1.0000      -0.850664       -23.1477 
  43   1.0000      -0.829540       -22.5729 
  44   1.0000      -0.792983       -21.5782 
  45   1.0000      -0.756813       -20.5939 
  46   1.0000      -0.714139       -19.4327 
  47   1.0000      -0.690680       -18.7944 
  48   1.0000      -0.662078       -18.0160 
  49   1.0000      -0.646274       -17.5860 
  50   1.0000      -0.642882       -17.4937 
  51   1.0000      -0.636023       -17.3071 
  52   1.0000      -0.623028       -16.9535 
  53   1.0000      -0.618085       -16.8189 
  54   1.0000      -0.616084       -16.7645 
  55   1.0000      -0.607890       -16.5415 
  56   1.0000      -0.603540       -16.4232 
  57   1.0000      -0.592483       -16.1223 
  58   1.0000      -0.590198       -16.0601 
  59   1.0000      -0.580112       -15.7856 
  60   1.0000      -0.579297       -15.7635 
  61   1.0000      -0.563528       -15.3344 
  62   1.0000      -0.552857       -15.0440 
  63   1.0000      -0.527175       -14.3452 
  64   1.0000      -0.512756       -13.9528 
  65   1.0000      -0.507904       -13.8208 
  66   1.0000      -0.503357       -13.6970 
  67   1.0000      -0.502993       -13.6871 
  68   1.0000      -0.498429       -13.5629 
  69   1.0000      -0.494935       -13.4679 
  70   1.0000      -0.489448       -13.3186 
  71   1.0000      -0.485120       -13.2008 
  72   1.0000      -0.480433       -13.0732 
  73   1.0000      -0.472966       -12.8701 
  74   1.0000      -0.471688       -12.8353 
  75   1.0000      -0.465855       -12.6766 
  76   1.0000      -0.463175       -12.6036 
  77   1.0000      -0.462331       -12.5807 
  78   1.0000      -0.459494       -12.5035 
  79   1.0000      -0.453566       -12.3422 
  80   1.0000      -0.451655       -12.2902 
  81   1.0000      -0.448129       -12.1942 
  82   1.0000      -0.445083       -12.1113 
  83   1.0000      -0.442371       -12.0375 
  84   1.0000      -0.440383       -11.9834 
  85   1.0000      -0.439935       -11.9712 
  86   1.0000      -0.432638       -11.7727 
  87   1.0000      -0.428738       -11.6666 
  88   1.0000      -0.418013       -11.3747 
  89   1.0000      -0.415130       -11.2963 
  90   1.0000      -0.410370       -11.1667 
  91   1.0000      -0.408274       -11.1097 
  92   1.0000      -0.394807       -10.7432 
  93   1.0000      -0.374339       -10.1863 
  94   1.0000      -0.358118        -9.7449 
  95   1.0000      -0.352563        -9.5937 
  96   1.0000      -0.282751        -7.6941 
  97   1.0000      -0.267236        -7.2719 
  98   1.0000      -0.260194        -7.0802 
  99   1.0000      -0.250436        -6.8147 
 100   1.0000      -0.244146        -6.6436 
 101   0.0000      -0.000507        -0.0138 
 102   0.0000       0.020941         0.5698 
 103   0.0000       0.024649         0.6707 
 104   0.0000       0.050662         1.3786 
 105   0.0000       0.063084         1.7166 
 106   0.0000       0.074619         2.0305 
 107   0.0000       0.092486         2.5167 
 108   0.0000       0.102345         2.7850 
 109   0.0000       0.113658         3.0928 
 110   0.0000       0.118078         3.2131 
 111   0.0000       0.120832         3.2880 

                 SPIN DOWN ORBITALS
  NO   OCC          E(Eh)            E(eV) 
   0   1.0000     -24.744167      -673.3230 
   1   1.0000     -24.743829      -673.3138 
   2   1.0000     -24.742766      -673.2849 
   3   1.0000     -24.742063      -673.2658 
   4   1.0000     -24.741434      -673.2486 
   5   1.0000     -24.740766      -673.2305 
   6   1.0000     -24.740144      -673.2135 
   7   1.0000     -24.739773      -673.2034 
   8   1.0000     -24.732481      -673.0050 
   9   1.0000     -24.732011      -672.9922 
  10   1.0000     -24.721500      -672.7062 
  11   1.0000     -24.712935      -672.4731 
  12   1.0000     -24.701804      -672.1702 
  13   1.0000     -24.701560      -672.1636 
  14   1.0000     -19.084861      -519.3255 
  15   1.0000     -19.073605      -519.0192 
  16   1.0000     -19.069678      -518.9123 
  17   1.0000     -10.459705      -284.6230 
  18   1.0000     -10.404840      -283.1301 
  19   1.0000     -10.402711      -283.0721 
  20   1.0000     -10.401496      -283.0391 
  21   1.0000     -10.382101      -282.5113 
  22   1.0000     -10.346682      -281.5475 
  23   1.0000     -10.303525      -280.3732 
  24   1.0000     -10.264400      -279.3085 
  25   1.0000      -1.352278       -36.7973 
  26   1.0000      -1.322430       -35.9852 
  27   1.0000      -1.306318       -35.5467 
  28   1.0000      -1.299818       -35.3698 
  29   1.0000      -1.289584       -35.0914 
  30   1.0000      -1.277235       -34.7553 
  31   1.0000      -1.264952       -34.4211 
  32   1.0000      -1.264789       -34.4167 
  33   1.0000      -1.259220       -34.2651 
  34   1.0000      -1.255483       -34.1634 
  35   1.0000      -1.248151       -33.9639 
  36   1.0000      -1.241026       -33.7700 
  37   1.0000      -1.226397       -33.3720 
  38   1.0000      -1.207880       -32.8681 
  39   1.0000      -1.035566       -28.1792 
  40   1.0000      -0.969963       -26.3940 
  41   1.0000      -0.951136       -25.8817 
  42   1.0000      -0.842635       -22.9293 
  43   1.0000      -0.820994       -22.3404 
  44   1.0000      -0.791146       -21.5282 
  45   1.0000      -0.751076       -20.4378 
  46   1.0000      -0.710458       -19.3326 
  47   1.0000      -0.689638       -18.7660 
  48   1.0000      -0.658142       -17.9090 
  49   1.0000      -0.644871       -17.5478 
  50   1.0000      -0.641428       -17.4542 
  51   1.0000      -0.635889       -17.3034 
  52   1.0000      -0.621441       -16.9103 
  53   1.0000      -0.616732       -16.7821 
  54   1.0000      -0.612737       -16.6734 
  55   1.0000      -0.606499       -16.5037 
  56   1.0000      -0.602027       -16.3820 
  57   1.0000      -0.589588       -16.0435 
  58   1.0000      -0.588651       -16.0180 
  59   1.0000      -0.579187       -15.7605 
  60   1.0000      -0.577783       -15.7223 
  61   1.0000      -0.561414       -15.2769 
  62   1.0000      -0.551420       -15.0049 
  63   1.0000      -0.512665       -13.9503 
  64   1.0000      -0.508216       -13.8293 
  65   1.0000      -0.504449       -13.7267 
  66   1.0000      -0.503158       -13.6916 
  67   1.0000      -0.499216       -13.5844 
  68   1.0000      -0.497276       -13.5316 
  69   1.0000      -0.494479       -13.4555 
  70   1.0000      -0.486812       -13.2468 
  71   1.0000      -0.483914       -13.1680 
  72   1.0000      -0.479262       -13.0414 
  73   1.0000      -0.471962       -12.8427 
  74   1.0000      -0.470627       -12.8064 
  75   1.0000      -0.464916       -12.6510 
  76   1.0000      -0.462253       -12.5786 
  77   1.0000      -0.460211       -12.5230 
  78   1.0000      -0.458095       -12.4654 
  79   1.0000      -0.451685       -12.2910 
  80   1.0000      -0.451469       -12.2851 
  81   1.0000      -0.447836       -12.1863 
  82   1.0000      -0.443832       -12.0773 
  83   1.0000      -0.441365       -12.0101 
  84   1.0000      -0.439914       -11.9707 
  85   1.0000      -0.439207       -11.9514 
  86   1.0000      -0.431716       -11.7476 
  87   1.0000      -0.427446       -11.6314 
  88   1.0000      -0.416529       -11.3343 
  89   1.0000      -0.414711       -11.2849 
  90   1.0000      -0.410180       -11.1616 
  91   1.0000      -0.406130       -11.0514 
  92   1.0000      -0.394494       -10.7347 
  93   1.0000      -0.371493       -10.1088 
  94   1.0000      -0.356814        -9.7094 
  95   1.0000      -0.351133        -9.5548 
  96   1.0000      -0.282694        -7.6925 
  97   1.0000      -0.260002        -7.0750 
  98   1.0000      -0.251219        -6.8360 
  99   1.0000      -0.245791        -6.6883 
 100   0.0000      -0.121397        -3.3034 
 101   0.0000       0.001879         0.0511 
 102   0.0000       0.025316         0.6889 
 103   0.0000       0.026623         0.7244 
 104   0.0000       0.054353         1.4790 
 105   0.0000       0.064538         1.7562 
 106   0.0000       0.078333         2.1315 
 107   0.0000       0.095436         2.5970 
 108   0.0000       0.105817         2.8794 
 109   0.0000       0.117263         3.1909 
 110   0.0000       0.122235         3.3262 
*Only the first 10 virtual orbitals were printed.

                    ********************************
                    * MULLIKEN POPULATION ANALYSIS *
                    ********************************

--------------------------------------------
MULLIKEN ATOMIC CHARGES AND SPIN POPULATIONS
--------------------------------------------
   0 C :    0.476650    0.002362
   1 C :    0.327475    0.004821
   2 C :    0.302533    0.032522
   3 C :    0.391427   -0.019587
   4 C :    0.102782    0.833050
   5 C :    0.351625   -0.004487
   6 C :    0.336219    0.010115
   7 C :    0.198761    0.000364
   8 F :   -0.155696   -0.000027
   9 F :   -0.153520    0.000041
  10 F :   -0.153986    0.000687
  11 F :   -0.166903   -0.000047
  12 F :   -0.165487    0.000218
  13 F :   -0.178293    0.000378
  14 F :   -0.177630    0.000634
  15 F :   -0.172121    0.008474
  16 F :   -0.178116    0.008734
  17 F :   -0.150143    0.084888
  18 F :   -0.194498    0.002881
  19 F :   -0.194734    0.024520
  20 F :   -0.215802    0.002416
  21 F :   -0.213123    0.000789
  22 O :   -0.454082    0.004804
  23 O :   -0.511584    0.001337
  24 O :   -0.726520    0.000072
  25 H :    0.324893   -0.000069
  26 H :    0.349873    0.000107
Sum of atomic charges         :   -1.0000000
Sum of atomic spin populations:    1.0000000

-----------------------------------------------------
MULLIKEN REDUCED ORBITAL CHARGES AND SPIN POPULATIONS
-----------------------------------------------------
CHARGE
  0 C s       :     3.025487  s :     3.025487
      pz      :     0.665385  p :     2.113364
      px      :     0.786804
      py      :     0.661174
      dz2     :     0.067813  d :     0.344125
      dxz     :     0.063718
      dyz     :     0.080865
      dx2y2   :     0.058510
      dxy     :     0.073219
      f0      :     0.007082  f :     0.040375
      f+1     :     0.007438
      f-1     :     0.004363
      f+2     :     0.006706
      f-2     :     0.004178
      f+3     :     0.006543
      f-3     :     0.004065

  1 C s       :     3.128592  s :     3.128592
      pz      :     0.631433  p :     2.238296
      px      :     0.759337
      py      :     0.847526
      dz2     :     0.070998  d :     0.277610
      dxz     :     0.062177
      dyz     :     0.050520
      dx2y2   :     0.051306
      dxy     :     0.042609
      f0      :     0.005345  f :     0.028027
      f+1     :     0.005176
      f-1     :     0.002747
      f+2     :     0.004205
      f-2     :     0.005595
      f+3     :     0.002422
      f-3     :     0.002537

  2 C s       :     3.161697  s :     3.161697
      pz      :     0.592755  p :     2.218245
      px      :     0.782003
      py      :     0.843488
      dz2     :     0.075243  d :     0.289428
      dxz     :     0.054983
      dyz     :     0.062201
      dx2y2   :     0.056815
      dxy     :     0.040187
      f0      :     0.006040  f :     0.028097
      f+1     :     0.004087
      f-1     :     0.003671
      f+2     :     0.005122
      f-2     :     0.004891
      f+3     :     0.001999
      f-3     :     0.002287

  3 C s       :     3.076519  s :     3.076519
      pz      :     0.625914  p :     2.211249
      px      :     0.780211
      py      :     0.805123
      dz2     :     0.071964  d :     0.293081
      dxz     :     0.052343
      dyz     :     0.063754
      dx2y2   :     0.048958
      dxy     :     0.056061
      f0      :     0.004996  f :     0.027725
      f+1     :     0.004029
      f-1     :     0.004244
      f+2     :     0.004760
      f-2     :     0.004527
      f+3     :     0.002587
      f-3     :     0.002583

  4 C s       :     3.254595  s :     3.254595
      pz      :     0.593761  p :     2.478020
      px      :     1.010841
      py      :     0.873417
      dz2     :     0.025532  d :     0.147073
      dxz     :     0.035842
      dyz     :     0.062735
      dx2y2   :     0.009465
      dxy     :     0.013499
      f0      :     0.003120  f :     0.017530
      f+1     :     0.004542
      f-1     :     0.005533
      f+2     :     0.001107
      f-2     :     0.000589
      f+3     :     0.001315
      f-3     :     0.001325

  5 C s       :     3.110198  s :     3.110198
      pz      :     0.635117  p :     2.231145
      px      :     0.761156
      py      :     0.834872
      dz2     :     0.046675  d :     0.279747
      dxz     :     0.064604
      dyz     :     0.061012
      dx2y2   :     0.051345
      dxy     :     0.056111
      f0      :     0.005337  f :     0.027285
      f+1     :     0.005133
      f-1     :     0.004822
      f+2     :     0.001572
      f-2     :     0.003151
      f+3     :     0.004752
      f-3     :     0.002518

  6 C s       :     3.148681  s :     3.148681
      pz      :     0.682040  p :     2.237725
      px      :     0.717563
      py      :     0.838122
      dz2     :     0.047046  d :     0.250873
      dxz     :     0.053576
      dyz     :     0.056127
      dx2y2   :     0.051447
      dxy     :     0.042677
      f0      :     0.005712  f :     0.026502
      f+1     :     0.003859
      f-1     :     0.003759
      f+2     :     0.001906
      f-2     :     0.004172
      f+3     :     0.004263
      f-3     :     0.002832

  7 C s       :     3.052395  s :     3.052395
      pz      :     0.833283  p :     2.474107
      px      :     0.779198
      py      :     0.861626
      dz2     :     0.037149  d :     0.249763
      dxz     :     0.036151
      dyz     :     0.053838
      dx2y2   :     0.074785
      dxy     :     0.047841
      f0      :     0.003045  f :     0.024974
      f+1     :     0.003413
      f-1     :     0.001838
      f+2     :     0.002436
      f-2     :     0.005567
      f+3     :     0.003394
      f-3     :     0.005280

  8 F s       :     3.912096  s :     3.912096
      pz      :     1.757745  p :     5.226198
      px      :     1.600914
      py      :     1.867540
      dz2     :     0.002401  d :     0.016644
      dxz     :     0.006007
      dyz     :     0.001510
      dx2y2   :     0.003791
      dxy     :     0.002936
      f0      :     0.000085  f :     0.000757
      f+1     :     0.000156
      f-1     :     0.000017
      f+2     :     0.000183
      f-2     :     0.000130
      f+3     :     0.000095
      f-3     :     0.000092

  9 F s       :     3.910829  s :     3.910829
      pz      :     1.503780  p :     5.225146
      px      :     1.883258
      py      :     1.838109
      dz2     :     0.006995  d :     0.016775
      dxz     :     0.003540
      dyz     :     0.004928
      dx2y2   :     0.000759
      dxy     :     0.000553
      f0      :     0.000239  f :     0.000769
      f+1     :     0.000143
      f-1     :     0.000253
      f+2     :     0.000069
      f-2     :     0.000053
      f+3     :     0.000005
      f-3     :     0.000006

 10 F s       :     3.911221  s :     3.911221
      pz      :     1.892496  p :     5.225338
      px      :     1.888494
      py      :     1.444348
      dz2     :     0.002404  d :     0.016662
      dxz     :     0.000181
      dyz     :     0.003450
      dx2y2   :     0.006863
      dxy     :     0.003764
      f0      :     0.000064  f :     0.000764
      f+1     :     0.000012
      f-1     :     0.000156
      f+2     :     0.000104
      f-2     :     0.000012
      f+3     :     0.000167
      f-3     :     0.000249

 11 F s       :     3.915553  s :     3.915553
      pz      :     1.712001  p :     5.234136
      px      :     1.636297
      py      :     1.885838
      dz2     :     0.002683  d :     0.016501
      dxz     :     0.006359
      dyz     :     0.001869
      dx2y2   :     0.003229
      dxy     :     0.002361
      f0      :     0.000075  f :     0.000712
      f+1     :     0.000187
      f-1     :     0.000023
      f+2     :     0.000190
      f-2     :     0.000115
      f+3     :     0.000070
      f-3     :     0.000054

 12 F s       :     3.913924  s :     3.913924
      pz      :     1.580497  p :     5.234261
      px      :     1.877287
      py      :     1.776476
      dz2     :     0.004946  d :     0.016580
      dxz     :     0.002981
      dyz     :     0.005900
      dx2y2   :     0.001560
      dxy     :     0.001193
      f0      :     0.000129  f :     0.000722
      f+1     :     0.000092
      f-1     :     0.000253
      f+2     :     0.000121
      f-2     :     0.000095
      f+3     :     0.000015
      f-3     :     0.000018

 13 F s       :     3.918595  s :     3.918595
      pz      :     1.594272  p :     5.242544
      px      :     1.748260
      py      :     1.900012
      dz2     :     0.004556  d :     0.016447
      dxz     :     0.006166
      dyz     :     0.002664
      dx2y2   :     0.001705
      dxy     :     0.001356
      f0      :     0.000117  f :     0.000707
      f+1     :     0.000260
      f-1     :     0.000066
      f+2     :     0.000133
      f-2     :     0.000092
      f+3     :     0.000022
      f-3     :     0.000017

 14 F s       :     3.920553  s :     3.920553
      pz      :     1.646125  p :     5.239863
      px      :     1.804152
      py      :     1.789586
      dz2     :     0.003576  d :     0.016507
      dxz     :     0.004165
      dyz     :     0.004619
      dx2y2   :     0.001939
      dxy     :     0.002208
      f0      :     0.000088  f :     0.000706
      f+1     :     0.000126
      f-1     :     0.000151
      f+2     :     0.000106
      f-2     :     0.000167
      f+3     :     0.000038
      f-3     :     0.000030

 15 F s       :     3.915820  s :     3.915820
      pz      :     1.560337  p :     5.239466
      px      :     1.776567
      py      :     1.902562
      dz2     :     0.005271  d :     0.016135
      dxz     :     0.005820
      dyz     :     0.002712
      dx2y2   :     0.001247
      dxy     :     0.001085
      f0      :     0.000146  f :     0.000700
      f+1     :     0.000266
      f-1     :     0.000080
      f+2     :     0.000107
      f-2     :     0.000077
      f+3     :     0.000012
      f-3     :     0.000013

 16 F s       :     3.916043  s :     3.916043
      pz      :     1.733355  p :     5.245550
      px      :     1.776682
      py      :     1.735512
      dz2     :     0.002373  d :     0.015842
      dxz     :     0.003547
      dyz     :     0.004228
      dx2y2   :     0.002416
      dxy     :     0.003279
      f0      :     0.000072  f :     0.000681
      f+1     :     0.000074
      f-1     :     0.000107
      f+2     :     0.000094
      f-2     :     0.000199
      f+3     :     0.000076
      f-3     :     0.000059

 17 F s       :     3.917804  s :     3.917804
      pz      :     1.458589  p :     5.213608
      px      :     1.844089
      py      :     1.910930
      dz2     :     0.008705  d :     0.017970
      dxz     :     0.005167
      dyz     :     0.003913
      dx2y2   :     0.000093
      dxy     :     0.000091
      f0      :     0.000375  f :     0.000762
      f+1     :     0.000212
      f-1     :     0.000169
      f+2     :     0.000003
      f-2     :     0.000002
      f+3     :     0.000001
      f-3     :     0.000001

 18 F s       :     3.918999  s :     3.918999
      pz      :     1.462246  p :     5.258985
      px      :     1.894195
      py      :     1.902544
      dz2     :     0.008030  d :     0.015834
      dxz     :     0.003527
      dyz     :     0.003720
      dx2y2   :     0.000218
      dxy     :     0.000339
      f0      :     0.000316  f :     0.000680
      f+1     :     0.000161
      f-1     :     0.000165
      f+2     :     0.000014
      f-2     :     0.000021
      f+3     :     0.000002
      f-3     :     0.000002

 19 F s       :     3.914775  s :     3.914775
      pz      :     1.892967  p :     5.264191
      px      :     1.594042
      py      :     1.777182
      dz2     :     0.002182  d :     0.015112
      dxz     :     0.002195
      dyz     :     0.001047
      dx2y2   :     0.004013
      dxy     :     0.005675
      f0      :     0.000053  f :     0.000657
      f+1     :     0.000096
      f-1     :     0.000045
      f+2     :     0.000020
      f-2     :     0.000083
      f+3     :     0.000140
      f-3     :     0.000220

 20 F s       :     3.912136  s :     3.912136
      pz      :     1.522011  p :     5.287916
      px      :     1.885172
      py      :     1.880733
      dz2     :     0.006296  d :     0.015092
      dxz     :     0.003368
      dyz     :     0.004191
      dx2y2   :     0.000592
      dxy     :     0.000643
      f0      :     0.000207  f :     0.000659
      f+1     :     0.000146
      f-1     :     0.000193
      f+2     :     0.000046
      f-2     :     0.000058
      f+3     :     0.000004
      f-3     :     0.000004

 21 F s       :     3.913460  s :     3.913460
      pz      :     1.899208  p :     5.283693
      px      :     1.647114
      py      :     1.737370
      dz2     :     0.002124  d :     0.015304
      dxz     :     0.002070
      dyz     :     0.001229
      dx2y2   :     0.003747
      dxy     :     0.006134
      f0      :     0.000054  f :     0.000666
      f+1     :     0.000088
      f-1     :     0.000058
      f+2     :     0.000012
      f-2     :     0.000088
      f+3     :     0.000160
      f-3     :     0.000206

 22 O s       :     3.770582  s :     3.770582
      pz      :     1.476578  p :     4.654154
      px      :     1.428156
      py      :     1.749420
      dz2     :     0.006707  d :     0.027647
      dxz     :     0.007770
      dyz     :     0.003136
      dx2y2   :     0.005465
      dxy     :     0.004570
      f0      :     0.000181  f :     0.001698
      f+1     :     0.000444
      f-1     :     0.000065
      f+2     :     0.000322
      f-2     :     0.000291
      f+3     :     0.000207
      f-3     :     0.000188

 23 O s       :     3.808214  s :     3.808214
      pz      :     1.656934  p :     4.676626
      px      :     1.509108
      py      :     1.510584
      dz2     :     0.002717  d :     0.025112
      dxz     :     0.002895
      dyz     :     0.004963
      dx2y2   :     0.007297
      dxy     :     0.007240
      f0      :     0.000182  f :     0.001632
      f+1     :     0.000115
      f-1     :     0.000162
      f+2     :     0.000063
      f-2     :     0.000301
      f+3     :     0.000361
      f-3     :     0.000447

 24 O s       :     3.790339  s :     3.790339
      pz      :     1.620997  p :     4.916073
      px      :     1.721408
      py      :     1.573668
      dz2     :     0.000826  d :     0.018897
      dxz     :     0.003756
      dyz     :     0.005460
      dx2y2   :     0.005788
      dxy     :     0.003068
      f0      :     0.000191  f :     0.001212
      f+1     :     0.000246
      f-1     :     0.000015
      f+2     :     0.000427
      f-2     :     0.000200
      f+3     :     0.000028
      f-3     :     0.000106

 25 H s       :     0.627944  s :     0.627944
      pz      :     0.015528  p :     0.047162
      px      :     0.013973
      py      :     0.017661

 26 H s       :     0.595109  s :     0.595109
      pz      :     0.020742  p :     0.055018
      px      :     0.022933
      py      :     0.011342


SPIN
  0 C s       :     0.000895  s :     0.000895
      pz      :     0.000153  p :     0.001204
      px      :     0.001217
      py      :    -0.000165
      dz2     :     0.000005  d :     0.000244
      dxz     :     0.000006
      dyz     :     0.000019
      dx2y2   :     0.000207
      dxy     :     0.000007
      f0      :    -0.000001  f :     0.000019
      f+1     :    -0.000000
      f-1     :     0.000000
      f+2     :     0.000004
      f-2     :     0.000001
      f+3     :     0.000016
      f-3     :    -0.000001

  1 C s       :    -0.001087  s :    -0.001087
      pz      :     0.000378  p :     0.005054
      px      :     0.001021
      py      :     0.003655
      dz2     :     0.000041  d :     0.000823
      dxz     :     0.000107
      dyz     :     0.000088
      dx2y2   :     0.000057
      dxy     :     0.000531
      f0      :     0.000000  f :     0.000031
      f+1     :     0.000001
      f-1     :    -0.000001
      f+2     :    -0.000002
      f-2     :     0.000004
      f+3     :     0.000027
      f-3     :     0.000001

  2 C s       :     0.000620  s :     0.000620
      pz      :     0.001065  p :     0.027593
      px      :     0.019319
      py      :     0.007209
      dz2     :     0.000311  d :     0.004320
      dxz     :     0.000142
      dyz     :     0.000642
      dx2y2   :     0.002323
      dxy     :     0.000901
      f0      :    -0.000002  f :    -0.000011
      f+1     :    -0.000008
      f-1     :     0.000000
      f+2     :     0.000002
      f-2     :    -0.000006
      f+3     :     0.000011
      f-3     :    -0.000007

  3 C s       :    -0.013541  s :    -0.013541
      pz      :    -0.006952  p :    -0.030896
      px      :    -0.003161
      py      :    -0.020783
      dz2     :     0.000586  d :     0.023571
      dxz     :     0.003193
      dyz     :     0.000825
      dx2y2   :    -0.000325
      dxy     :     0.019292
      f0      :     0.000031  f :     0.001279
      f+1     :     0.000033
      f-1     :     0.000036
      f+2     :     0.000012
      f-2     :     0.000475
      f+3     :     0.000619
      f-3     :     0.000074

  4 C s       :     0.045634  s :     0.045634
      pz      :     0.010134  p :     0.784990
      px      :     0.743091
      py      :     0.031766
      dz2     :     0.000671  d :     0.004303
      dxz     :     0.002920
      dyz     :     0.001578
      dx2y2   :    -0.002100
      dxy     :     0.001235
      f0      :    -0.000367  f :    -0.001877
      f+1     :    -0.000289
      f-1     :    -0.000008
      f+2     :    -0.000400
      f-2     :     0.000028
      f+3     :    -0.000180
      f-3     :    -0.000662

  5 C s       :    -0.012031  s :    -0.012031
      pz      :    -0.005959  p :    -0.010767
      px      :     0.011166
      py      :    -0.015974
      dz2     :     0.000101  d :     0.016883
      dxz     :     0.000636
      dyz     :    -0.000381
      dx2y2   :    -0.000586
      dxy     :     0.017113
      f0      :     0.000009  f :     0.001428
      f+1     :    -0.000007
      f-1     :     0.000029
      f+2     :     0.000019
      f-2     :     0.000567
      f+3     :     0.000655
      f-3     :     0.000157

  6 C s       :    -0.000645  s :    -0.000645
      pz      :     0.000559  p :     0.010142
      px      :     0.012598
      py      :    -0.003015
      dz2     :    -0.000024  d :     0.000573
      dxz     :    -0.000019
      dyz     :    -0.000035
      dx2y2   :     0.000346
      dxy     :     0.000304
      f0      :    -0.000004  f :     0.000045
      f+1     :    -0.000004
      f-1     :    -0.000002
      f+2     :     0.000018
      f-2     :    -0.000004
      f+3     :     0.000023
      f-3     :     0.000017

  7 C s       :    -0.000580  s :    -0.000580
      pz      :     0.000536  p :     0.000818
      px      :    -0.000107
      py      :     0.000388
      dz2     :     0.000098  d :     0.000092
      dxz     :     0.000060
      dyz     :     0.000087
      dx2y2   :    -0.000017
      dxy     :    -0.000135
      f0      :    -0.000002  f :     0.000034
      f+1     :     0.000001
      f-1     :     0.000009
      f+2     :     0.000003
      f-2     :     0.000004
      f+3     :     0.000005
      f-3     :     0.000013

  8 F s       :     0.000010  s :     0.000010
      pz      :    -0.000003  p :    -0.000038
      px      :    -0.000045
      py      :     0.000010
      dz2     :     0.000000  d :     0.000002
      dxz     :     0.000000
      dyz     :     0.000001
      dx2y2   :     0.000000
      dxy     :    -0.000000
      f0      :     0.000000  f :     0.000000
      f+1     :     0.000000
      f-1     :     0.000000
      f+2     :    -0.000000
      f-2     :     0.000000
      f+3     :     0.000000
      f-3     :    -0.000000

  9 F s       :    -0.000003  s :    -0.000003
      pz      :    -0.000033  p :     0.000043
      px      :     0.000087
      py      :    -0.000011
      dz2     :     0.000000  d :     0.000002
      dxz     :     0.000001
      dyz     :    -0.000000
      dx2y2   :     0.000000
      dxy     :     0.000000
      f0      :    -0.000000  f :     0.000000
      f+1     :     0.000000
      f-1     :     0.000000
      f+2     :     0.000000
      f-2     :     0.000000
      f+3     :    -0.000000
      f-3     :     0.000000

 10 F s       :    -0.000005  s :    -0.000005
      pz      :     0.000064  p :     0.000688
      px      :     0.000287
      py      :     0.000337
      dz2     :    -0.000000  d :     0.000004
      dxz     :     0.000000
      dyz     :     0.000000
      dx2y2   :    -0.000000
      dxy     :     0.000003
      f0      :     0.000000  f :     0.000000
[...]
 21:    187.29   0.001954    9.87  0.003255  ( 0.023129  0.016749  0.049394)
 22:    192.79   0.001693    8.56  0.002741  ( 0.050772  0.006379  0.011071)
 23:    205.88   0.001536    7.76  0.002328  (-0.026711 -0.029186  0.027625)
 24:    218.60   0.000564    2.85  0.000805  ( 0.015657  0.012563  0.020038)
 25:    231.72   0.000215    1.08  0.000289  (-0.010965 -0.010966 -0.006959)
 26:    242.85   0.000094    0.47  0.000120  ( 0.001638  0.010783 -0.001169)
 27:    246.12   0.000108    0.55  0.000137  (-0.011467  0.001495  0.001879)
 28:    267.21   0.000994    5.02  0.001161  (-0.014031 -0.029889 -0.008413)
 29:    283.31   0.000514    2.60  0.000566  ( 0.003984 -0.022452  0.006771)
 30:    288.49   0.000940    4.75  0.001016  (-0.004538 -0.029216 -0.011922)
 31:    311.47   0.000143    0.72  0.000143  ( 0.005943 -0.009692 -0.003756)
 32:    327.64   0.000229    1.16  0.000218  (-0.004093  0.013133  0.005344)
 33:    342.45   0.000016    0.08  0.000014  ( 0.000778  0.000052 -0.003721)
 34:    356.11   0.000086    0.44  0.000076  ( 0.002595  0.003094  0.007708)
 35:    362.76   0.000679    3.43  0.000585  (-0.006976  0.003523 -0.022879)
 36:    371.54   0.001214    6.14  0.001020  (-0.015392  0.027663 -0.004201)
 37:    374.67   0.000047    0.24  0.000039  (-0.005821 -0.002319  0.000195)
 38:    396.93   0.001957    9.89  0.001538  ( 0.027943  0.014586  0.023338)
 39:    435.14   0.003396   17.16  0.002435  ( 0.020774 -0.010814  0.043436)
 40:    441.68   0.012139   61.35  0.008577  (-0.052162  0.013969 -0.075238)
 41:    459.43   0.005356   27.06  0.003638  (-0.050206  0.024890 -0.022306)
 42:    510.91   0.000752    3.80  0.000459  (-0.003828  0.001579  0.021029)
 43:    524.76   0.007220   36.49  0.004294  ( 0.012229 -0.063773 -0.008787)
 44:    546.98   0.001427    7.21  0.000814  (-0.001131 -0.027842 -0.006160)
 45:    556.16   0.003265   16.50  0.001832  ( 0.010626 -0.022180 -0.035033)
 46:    572.34   0.005066   25.60  0.002762  (-0.047181  0.022477 -0.005585)
 47:    585.07   0.006515   32.93  0.003475  (-0.033870 -0.048237  0.001055)
 48:    595.33   0.002759   13.94  0.001446  ( 0.011809 -0.031143 -0.018349)
 49:    619.98   0.008050   40.68  0.004052  (-0.004257  0.062957  0.008386)
 50:    647.75   0.007297   36.88  0.003515  (-0.020409  0.055306 -0.006336)
 51:    689.22   0.020405  103.12  0.009239  (-0.003103 -0.095651 -0.008963)
 52:    696.65   0.006014   30.39  0.002694  (-0.048014  0.003973 -0.019310)
 53:    709.72   0.025478  128.75  0.011203  ( 0.078257 -0.020706 -0.068189)
 54:    726.46   0.020793  105.08  0.008932  (-0.066193 -0.056545 -0.036782)
 55:    776.34   0.010120   51.14  0.004068  ( 0.025056  0.058589  0.002700)
 56:    799.87   0.021366  107.97  0.008336  (-0.027472  0.053874 -0.068400)
 57:    868.06   0.008382   42.36  0.003013  (-0.044888 -0.023706 -0.020887)
 58:    991.36   0.004493   22.71  0.001414  (-0.027681  0.006356  0.024654)
 59:   1040.26   0.043760  221.15  0.013128  (-0.059551 -0.097802  0.003987)
 60:   1087.08   0.053402  269.87  0.015330  ( 0.110644  0.038343  0.040222)
 61:   1097.35   0.036935  186.65  0.010503  ( 0.030661  0.062957  0.074831)
 62:   1105.40   0.016050   81.11  0.004531  (-0.059526 -0.000292  0.031427)
 63:   1119.97   0.086770  438.50  0.024177  (-0.141650  0.056025 -0.031206)
 64:   1130.93   0.055014  278.02  0.015180  ( 0.023935  0.013171 -0.120141)
 65:   1141.16   0.012218   61.74  0.003341  (-0.036178 -0.001538  0.045054)
 66:   1144.74   0.055692  281.44  0.015182  ( 0.003774  0.023207 -0.120951)
 67:   1156.68   0.074922  378.62  0.020213  (-0.001735  0.069827 -0.123833)
 68:   1165.15   0.106902  540.24  0.028632  (-0.102010  0.057013  0.122374)
 69:   1184.23   0.049557  250.44  0.013059  (-0.018880 -0.065019  0.092061)
 70:   1189.40   0.017349   87.68  0.004552  (-0.004897 -0.021056 -0.063911)
 71:   1204.73   0.019510   98.60  0.005054  (-0.002717  0.069802 -0.013198)
 72:   1257.80   0.004850   24.51  0.001203  (-0.004571  0.033391 -0.008217)
 73:   1315.12   0.013118   66.29  0.003113  ( 0.036004 -0.021379  0.036871)
 74:   1325.32   0.027622  139.59  0.006504  (-0.019625 -0.069681 -0.035545)
 75:   1350.45   0.065514  331.08  0.015139  (-0.014319  0.111385 -0.050273)
 76:   1392.37   0.010872   54.94  0.002437  ( 0.007279  0.045815  0.016874)
 77:   1669.22   0.043114  217.88  0.008060  (-0.047998 -0.072232 -0.023216)
 78:   1722.35   0.176024  889.55  0.031893  (-0.137851 -0.076080 -0.084272)
 79:   3430.88   0.209080  1056.60  0.019017  (-0.098514 -0.044656 -0.085545)
 80:   3810.21   0.013423   67.83  0.001099  ( 0.018306 -0.013550  0.024096)

* The epsilon (eps) is given for a Dirac delta lineshape.
** The dipole moment derivative (T) already includes vibrational overlap.

The first frequency considered to be a vibration is 6
The total number of vibrations considered is 75


--------------------------
THERMOCHEMISTRY AT 298.15K
--------------------------

Temperature         ...   298.15 K
Pressure            ...     1.00 atm
Total Mass          ...   412.07 AMU
Quasi RRHO          ...     True
Cut-Off Frequency   ...     1.00 cm^-1

Throughout the following assumptions are being made:
  (1) The electronic state is orbitally nondegenerate
      but the spin degeneracy is treated
  (2) There are no thermally accessible electronically excited states
  (3) Hindered rotations indicated by low frequency modes are not
      treated as such but are treated as vibrations and this may
      cause some error
  (4) All equations used are the standard statistical mechanics
      equations for an ideal gas
  (5) All vibrations are strictly harmonic

freq.      15.72  E(vib)   ...       0.57 
freq.      23.78  E(vib)   ...       0.56 
freq.      27.71  E(vib)   ...       0.55 
freq.      38.51  E(vib)   ...       0.54 
freq.      45.05  E(vib)   ...       0.53 
freq.      53.41  E(vib)   ...       0.52 
freq.      54.55  E(vib)   ...       0.52 
freq.      62.00  E(vib)   ...       0.51 
freq.      75.16  E(vib)   ...       0.49 
freq.      85.54  E(vib)   ...       0.48 
freq.     109.57  E(vib)   ...       0.45 
freq.     125.74  E(vib)   ...       0.43 
freq.     161.67  E(vib)   ...       0.39 
freq.     168.72  E(vib)   ...       0.38 
freq.     172.03  E(vib)   ...       0.38 
freq.     187.29  E(vib)   ...       0.36 
freq.     192.79  E(vib)   ...       0.36 
freq.     205.88  E(vib)   ...       0.35 
freq.     218.60  E(vib)   ...       0.33 
freq.     231.72  E(vib)   ...       0.32 
freq.     242.85  E(vib)   ...       0.31 
freq.     246.12  E(vib)   ...       0.31 
freq.     267.21  E(vib)   ...       0.29 
freq.     283.31  E(vib)   ...       0.28 
freq.     288.49  E(vib)   ...       0.27 
freq.     311.47  E(vib)   ...       0.25 
freq.     327.64  E(vib)   ...       0.24 
freq.     342.45  E(vib)   ...       0.23 
freq.     356.11  E(vib)   ...       0.22 
freq.     362.76  E(vib)   ...       0.22 
freq.     371.54  E(vib)   ...       0.21 
freq.     374.67  E(vib)   ...       0.21 
freq.     396.93  E(vib)   ...       0.20 
freq.     435.14  E(vib)   ...       0.17 
freq.     441.68  E(vib)   ...       0.17 
freq.     459.43  E(vib)   ...       0.16 
freq.     510.91  E(vib)   ...       0.14 
freq.     524.76  E(vib)   ...       0.13 
freq.     546.98  E(vib)   ...       0.12 
freq.     556.16  E(vib)   ...       0.12 
freq.     572.34  E(vib)   ...       0.11 
freq.     585.07  E(vib)   ...       0.11 
freq.     595.33  E(vib)   ...       0.10 
freq.     619.98  E(vib)   ...       0.09 
freq.     647.75  E(vib)   ...       0.09 
freq.     689.22  E(vib)   ...       0.07 
freq.     696.65  E(vib)   ...       0.07 
freq.     709.72  E(vib)   ...       0.07 
freq.     726.46  E(vib)   ...       0.06 
freq.     776.34  E(vib)   ...       0.05 
freq.     799.87  E(vib)   ...       0.05 
freq.     868.06  E(vib)   ...       0.04 
freq.     991.36  E(vib)   ...       0.02 
freq.    1040.26  E(vib)   ...       0.02 
freq.    1087.08  E(vib)   ...       0.02 
freq.    1097.35  E(vib)   ...       0.02 
freq.    1105.40  E(vib)   ...       0.02 
freq.    1119.97  E(vib)   ...       0.01 
freq.    1130.93  E(vib)   ...       0.01 
freq.    1141.16  E(vib)   ...       0.01 
freq.    1144.74  E(vib)   ...       0.01 
freq.    1156.68  E(vib)   ...       0.01 
freq.    1165.15  E(vib)   ...       0.01 
freq.    1184.23  E(vib)   ...       0.01 
freq.    1189.40  E(vib)   ...       0.01 
freq.    1204.73  E(vib)   ...       0.01 
freq.    1257.80  E(vib)   ...       0.01 
freq.    1315.12  E(vib)   ...       0.01 
freq.    1325.32  E(vib)   ...       0.01 
freq.    1350.45  E(vib)   ...       0.01 
freq.    1392.37  E(vib)   ...       0.00 
freq.    1669.22  E(vib)   ...       0.00 
freq.    1722.35  E(vib)   ...       0.00 
freq.    3430.88  E(vib)   ...       0.00 
freq.    3810.21  E(vib)   ...       0.00 

------------
INNER ENERGY
------------

The inner energy is: U= E(el) + E(ZPE) + E(vib) + E(rot) + E(trans)
    E(el)   - is the total energy from the electronic structure calculation
              = E(kin-el) + E(nuc-el) + E(el-el) + E(nuc-nuc)
    E(ZPE)  - the the zero temperature vibrational energy from the frequency calculation
    E(vib)  - the the finite temperature correction to E(ZPE) due to population
              of excited vibrational states
    E(rot)  - is the rotational thermal energy
    E(trans)- is the translational thermal energy

Summary of contributions to the inner energy U:
Electronic energy                ...  -1929.73208520 Eh
Zero point energy                ...      0.11669007 Eh      73.22 kcal/mol
Thermal vibrational correction   ...      0.02300791 Eh      14.44 kcal/mol
Thermal rotational correction    ...      0.00141627 Eh       0.89 kcal/mol
Thermal translational correction ...      0.00141627 Eh       0.89 kcal/mol
-----------------------------------------------------------------------
Total thermal energy                  -1929.58955468 Eh


Summary of corrections to the electronic energy:
(perhaps to be used in another calculation)
Total thermal correction                  0.02584045 Eh      16.22 kcal/mol
Non-thermal (ZPE) correction              0.11669007 Eh      73.22 kcal/mol
-----------------------------------------------------------------------
Total correction                          0.14253052 Eh      89.44 kcal/mol


--------
ENTHALPY
--------

The enthalpy is H = U + kB*T
                kB is Boltzmann's constant
Total thermal energy              ...  -1929.58955468 Eh 
Thermal Enthalpy correction       ...      0.00094421 Eh       0.59 kcal/mol
-----------------------------------------------------------------------
Total Enthalpy                    ...  -1929.58861047 Eh


Note: Only C1 symmetry has been detected, increase convergence thresholds 
      if your molecule has a higher symmetry. Symmetry factor of 1.0 is   
      used for the rotational entropy correction. 
 

Note: Rotational entropy computed according to Herzberg 
Infrared and Raman Spectra, Chapter V,1, Van Nostrand Reinhold, 1945 
Point Group:  C1, Symmetry Number:   1  
Rotational constants in cm-1:     0.015963     0.004000     0.003717 

Vibrational entropy computed according to the QRRHO of S. Grimme
Chem.Eur.J. 2012 18 9955 using a reference frequency of 100.0 cm-1


-------
ENTROPY
-------

The entropy contributions are T*S = T*(S(el)+S(vib)+S(rot)+S(trans))
     S(el)   - electronic entropy
     S(vib)  - vibrational entropy
     S(rot)  - rotational entropy
     S(trans)- translational entropy
The entropies will be listed as multiplied by the temperature to get
units of energy

Electronic entropy                ...      0.00065446 Eh      0.41 kcal/mol
Vibrational entropy               ...      0.04213215 Eh     26.44 kcal/mol
Rotational entropy                ...      0.01671197 Eh     10.49 kcal/mol
Translational entropy             ...      0.02087673 Eh     13.10 kcal/mol
-----------------------------------------------------------------------
Final entropy term                ...      0.08037530 Eh     50.44 kcal/mol

In case the symmetry of your molecule has not been determined correctly
or in case you have a reason to use a different symmetry number we print 
out the resulting rotational entropy values for sn=1,12:

 non-linear molecules -----------------------------------
|  sn= 1 | S(rot)=       0.01671197 Eh     10.49 kcal/mol|
|  sn= 2 | S(rot)=       0.01605752 Eh     10.08 kcal/mol|
|  sn= 3 | S(rot)=       0.01567469 Eh      9.84 kcal/mol|
|  sn= 4 | S(rot)=       0.01540306 Eh      9.67 kcal/mol|
|  sn= 5 | S(rot)=       0.01519237 Eh      9.53 kcal/mol|
|  sn= 6 | S(rot)=       0.01502023 Eh      9.43 kcal/mol|
|  sn= 7 | S(rot)=       0.01487468 Eh      9.33 kcal/mol|
|  sn= 8 | S(rot)=       0.01474860 Eh      9.25 kcal/mol|
|  sn= 9 | S(rot)=       0.01463740 Eh      9.19 kcal/mol|
|  sn=10 | S(rot)=       0.01453792 Eh      9.12 kcal/mol|
|  sn=11 | S(rot)=       0.01444793 Eh      9.07 kcal/mol|
|  sn=12 | S(rot)=       0.01436577 Eh      9.01 kcal/mol|
 linear molecules ---------------------------------------
|  Dinfh | S(rot)=       0.01060835 Eh      6.66 kcal/mol|
|  Cinfv | S(rot)=       0.01126281 Eh      7.07 kcal/mol|
 --------------------------------------------------------


-------------------
GIBBS FREE ENERGY
-------------------

The Gibbs free energy is G = H - T*S

Total enthalpy                    ...  -1929.58861047 Eh 
Total entropy correction          ...     -0.08037530 Eh    -50.44 kcal/mol
-----------------------------------------------------------------------
Final Gibbs free energy         ...  -1929.66898578 Eh

For completeness - the Gibbs free energy minus the electronic energy
G-E(el)                           ...      0.06309943 Eh     39.60 kcal/mol


Maximum memory used throughout the entire PROP-calculation: 610.8 MB

--------------------------------
SUGGESTED CITATIONS FOR THIS RUN
--------------------------------

Below you find a list of papers that are relevant to this ORCA run
We neither can nor want to force you to cite these papers, but we appreciate if you do
You receive ORCA, which is the product of decades of hard work by many enthusiastic individuals, for free
The only thing we kindly ask in return is that you cite our papers,
We deeply appreciate it, if you show your appreciation for ORCA by not just citing the generic ORCA reference.

Please note that relegating all ORCA citations to the supporting information does *not* help us.
SI sections are not indexed - citations you put there will not count into any citation statistics
But we need these citations in order to attract the funding resources that allow us to do what we are doing

Therefore, if you are a happy ORCA user, please consider citing a few of the papers listed below in the main body of your paper

In addition to the list printed below, the program has created the file rf_mecn_1H2O_freq_B3L_con_02.bibtex that contains the list in bibtex format
You can import this file easily into all common literature databanks and citation aid programs


List of essential papers. We consider these as the minimum necessary citations

  1. Neese,F.
     Software update: the ORCA program system, version 5.0
     WIRES Comput. Molec. Sci., 2022 12(1)e1606
     doi.org/10.1002/wcms.1606

List of papers to cite with high priority. The work reported in these papers was absolutely
necessary for this run to complete.
Our perspective: the developers of density functionals and basis sets usually get cited in chemistry papers
Good! But without the algorithms to do something with them, the functionals or basis sets would not do anything.
Hence, in our opinion, the algorithm design and method developments papers are equally worthy of getting cited

  1. Neese,F.
     An improvement of the resolution of the identity approximation for the formation of the Coulomb matrix
     J. Comp. Chem., 2003 24(14)1740-1747
     doi.org/10.1002/jcc.10318
  2. Neese,F.; Wennmohs,F.; Hansen,A.; Becker,U.
     Efficient, approximate and parallel Hartree-Fock and hybrid DFT calculations. A 'chain-of-spheres' algorithm for the Hartree-Fock exchange
     Chem. Phys., 2009 356(1-3)98-109
     doi.org/10.1016/j.chemphys.2008.10.036
  3. Bykov,D.; Petrenko,T.; Izsak,R.; Kossmann,S.; Becker,U.; Valeev,E.; Neese,F.
     Efficient implementation of the analytic second derivatives of Hartree-Fock and hybrid DFT energies: a detailed analysis of different approximations
     Molec. Phys., 2015 113 1961-1977
     doi.org/10.1080/00268976.2015.1025114
  4. Garcia-Rates,M.; Neese,F.
     Efficient implementation of the analytical second derivatives of hartree-fock and hybrid DFT energies within the framework of the conductor-like polarizable continuum model
     J. Comput. Chem., 2019 40 1816-1828
     doi.org/10.1002/jcc.25833
  5. Garcia-Rates,M.; Neese,F.
     Effect of the Solute Cavity on the Solvation Energy and its Derivatives within the Framework of the Gaussian Charge Scheme
     J. Comput. Chem., 2020 41 922-939
     doi.org/10.1002/jcc.26139
  6. Helmich-Paris,B.; de Souza,B.; Neese,F.; Izsák,R.
     An improved chain of spheres for exchange algorithm
     J. Chem. Phys., 2021 155 104109
     doi.org/doi: 10.1063/5.0058766.
  7. Neese,F.
     The SHARK Integral Generation and Digestion System
     J. Comp. Chem., 2022  1-16
     doi.org/10.1002/jcc.26942
  8. Grimme,S.; Antony,J.; Ehrlich,S.; Krieg,H.
     A consistent and accurate ab initio parametrization of density functional dispersion correction (DFT-D) for the 94 elements H-Pu
     J. Chem. Phys., 2010 132 154104
     doi.org/10.1063/1.3382344
  9. Grimme,S.; Ehrlich,S.; Goerigk,L.
     Effect of the damping function in dispersion corrected density functional theory
     J. Comput. Chem., 2011 32(7)1456-1465
     doi.org/10.1002/jcc.21759

List of suggested additional citations. These are papers that are important in the 'surrounding' of 
of this run, or papers that preceded the highly important papers. If you like your results we are grateful for a citation.

  1. Izsak,R.; Neese,F.
     An overlap fitted chain of spheres exchange method
     J. Chem. Phys., 2011 135 144105
     doi.org/10.1063/1.3646921
  2. Izsak,R.; Hansen,A.; Neese,F.
     The resolution of identity and chain of spheres approximations for the LPNO-CCSD singles Fock term
     Molec. Phys., 2012 110 2413-2417
     doi.org/10.1080/00268976.2012.687466
  3. Neese,F.
     The ORCA program system
     WIRES Comput. Molec. Sci., 2012 2(1)73-78
     doi.org/10.1002/wcms.81
  4. Izsak,R.; Neese,F.; Klopper,W.
     Robust fitting techniques in the chain of spheres approximation to the Fock exchange: The role of the complementary space
     J. Chem. Phys., 2013 139 
     doi.org/10.1063/1.4819264
  5. Neese,F.
     Software update: the ORCA program system, version 4.0
     WIRES Comput. Molec. Sci., 2018 8(1)1-6
     doi.org/10.1002/wcms.1327
  6. Neese,F.; Wennmohs,F.; Becker,U.; Riplinger,C.
     The ORCA quantum chemistry program package
     J. Chem. Phys., 2020 152 Art. No. L224108
     doi.org/10.1063/5.0004608

List of optional additional citations

  1. Neese,F.
     Approximate second-order SCF convergence for spin unrestricted wavefunctions
     Chem. Phys. Lett., 2000 325(1-3)93-98
     doi.org/10.1016/s0009-2614(00)00662-x

Timings for individual modules:

Sum of individual times          ...     1182.638 sec (=  19.711 min)
Startup calculation              ...        7.357 sec (=   0.123 min)   0.6 %
SCF iterations                   ...       90.419 sec (=   1.507 min)   7.6 %
Property integrals               ...      275.156 sec (=   4.586 min)  23.3 %
SCF Response                     ...      570.125 sec (=   9.502 min)  48.2 %
Property calculations            ...      239.582 sec (=   3.993 min)  20.3 %
                             ****ORCA TERMINATED NORMALLY****
TOTAL RUN TIME: 0 days 0 hours 19 minutes 44 seconds 932 msec
