
                                 *****************
                                 * O   R   C   A *
                                 *****************

                                            #,                                       
                                            ###                                      
                                            ####                                     
                                            #####                                    
                                            ######                                   
                                           ########,                                 
                                     ,,################,,,,,                         
                               ,,#################################,,                 
                          ,,##########################################,,             
                       ,#########################################, ''#####,          
                    ,#############################################,,   '####,        
                  ,##################################################,,,,####,       
                ,###########''''           ''''###############################       
              ,#####''   ,,,,##########,,,,          '''####'''          '####       
            ,##' ,,,,###########################,,,                        '##       
           ' ,,###''''                  '''############,,,                           
         ,,##''                                '''############,,,,        ,,,,,,###''
      ,#''                                            '''#######################'''  
     '                                                          ''''####''''         
             ,#######,   #######,   ,#######,      ##                                
            ,#'     '#,  ##    ##  ,#'     '#,    #''#        ,####,   ,####,        
            ##       ##  ##   ,#'  ##            #'  '#       #'       #'  '#        
            ##       ##  #######   ##           ,######,      #####,   #    #        
            '#,     ,#'  ##    ##  '#,     ,#' ,#      #,     #,   #   #,  ,#        
             '#######'   ##     ##  '#######'  #'      '#     '####' # '####'        



                #########################################################
                #                        -***-                          #
                #          Department of theory and spectroscopy        #
                #                                                       #
                #                      Frank Neese                      #
                #                                                       #
                #     Directorship, Architecture, Infrastructure        #
                #                    SHARK, DRIVERS                     #
                #        Core code/Algorithms in most modules           #
                #                                                       #
                #        Max Planck Institute fuer Kohlenforschung      #
                #                Kaiser Wilhelm Platz 1                 #
                #                 D-45470 Muelheim/Ruhr                 #
                #                      Germany                          #
                #                                                       #
                #                  All rights reserved                  #
                #                        -***-                          #
                #########################################################


                         Program Version 6.0.1  -  RELEASE   -


 With contributions from (in alphabetic order):
[Max-Planck-Institut fuer Kohlenforschung]                               
  Daniel Aravena         : Magnetic Suceptibility                        
  Michael Atanasov       : Ab Initio Ligand Field Theory (pilot matlab implementation)
  Alexander A. Auer      : GIAO ZORA, VPT2 properties, NMR spectrum      
  Ute Becker             : All parallelization in ORCA, NUMFREQ, NUMCALC 
  Giovanni Bistoni       : ED, misc. LED, open-shell LED, HFLD           
  Martin Brehm           : Molecular dynamics                            
  Dmytro Bykov           : pre 5.0 version of the SCF Hessian            
  Marcos Casanova-Páez   : Triplet and SCS-CIS(D). UHF-(DLPNO)-IP/EA/STEOM-CCSD. UHF-CVS-IP/STEOM-CCSD   
  Vijay G. Chilkuri      : MRCI spin determinant printing, contributions to CSF-ICE 
  Pauline Colinet        : FMM embedding                                 
  Dipayan Datta          : RHF DLPNO-CCSD density                        
  Achintya Kumar Dutta   : EOM-CC, STEOM-CC                              
  Nicolas Foglia         : Exact transition moments, OPA infrastructure, MCD improvements    
  Dmitry Ganyushin       : Spin-Orbit,Spin-Spin,Magnetic field MRCI      
  Miquel Garcia-Rates    : C-PCM and meta-GGA Hessian, CCSD/C-PCM, Gaussian charge scheme 
  Tiago L. C. Gouveia    : GS-ROHF, GS-ROCIS                             
  Yang Guo               : DLPNO-NEVPT2, F12-NEVPT2, CIM, IAO-localization        
  Andreas Hansen         : Spin unrestricted coupled pair/coupled cluster methods 
  Ingolf Harden          : AUTO-CI MPn and infrastructure                
  Benjamin Helmich-Paris : MC-RPA, TRAH-(SCF,CASSCF), AVAS, COSX integrals, SCF dyn. polar. 
  Lee Huntington         : MR-EOM, pCC                                   
  Robert Izsak           : Overlap fitted RIJCOSX, COSX-SCS-MP3, EOM     
  Riya Kayal             : Wick's Theorem for AUTO-CI, AUTO-CI UHF-CCSDT 
  Emily Kempfer          : AUTO-CI, RHF CISDT and CCSDT                  
  Christian Kollmar      : KDIIS, OOCD, Brueckner-CCSD(T), CCSD density, CASPT2, CASPT2-K, improved NEVPT2 
  Axel Koslowski         : Symmetry handling                             
  Simone Kossmann        : meta-GGA functionals, TD-DFT gradient, OOMP2, (MP2 Hessian; deprecated post 5.0) 
  Lucas Lang             : DCDCAS                                        
  Marvin Lechner         : AUTO-CI (C++ implementation), FIC-MRCC        
  Spencer Leger          : CASSCF response                               
  Dagmar Lenk            : GEPOL surface, SMD, ORCA-2-JSON               
  Dimitrios Liakos       : Extrapolation schemes; Compound Job, initial MDCI parallelization 
  Dimitrios Manganas     : Further ROCIS development; embedding schemes. LFT, Crystal Embedding 
  Dimitrios Pantazis     : SARC Basis sets                               
  Anastasios Papadopoulos: AUTO-CI, single reference methods and gradients 
  Taras Petrenko         : pre 6.0 DFT Hessian and TD-DFT gradient, (ASA, deprecated), ECA, 1-Electron XAS/XES, NRVS 
  Peter Pinski           : DLPNO-MP2, DLPNO-MP2 Gradient                 
  Christoph Reimann      : Effective Core Potentials                     
  Marius Retegan         : Local ZFS, SOC                                
  Christoph Riplinger    : Optimizer, TS searches, QM/MM, DLPNO-CCSD(T), (RO)-DLPNO pert. Triples 
  Michael Roemelt        : Original ROCIS implementation                 
  Masaaki Saitow         : Open-shell DLPNO-CCSD energy and density      
  Barbara Sandhoefer     : DKH picture change effects                    
  Kantharuban Sivalingam : CASSCF convergence/infrastructure, NEVPT2 and variants, FIC-MRCI 
  Bernardo de Souza      : ESD, SOC TD-DFT                               
  Georgi L. Stoychev     : AutoAux, RI-MP2 NMR, DLPNO-MP2 response, X2C  
  Van Anh Tran           : RI-MP2 g-tensors                              
  Willem Van den Heuvel  : Paramagnetic NMR                              
  Zikuan Wang            : NOTCH, Electric field optimization            
  Frank Wennmohs         : Technical directorship and infrastructure     
  Hang Xu                : AUTO-CI-Response properties                   
                                                                         
[FACCTs GmbH]                                                            
  Markus Bursch, Miquel Garcia-Rates, Christoph Riplinger, Bernardo de Souza, Georgi L. Stoychev 
                                                                 
  APM, Basis sets (HGBS, AHGBS, def-TZVP (Ac-Lr), def2-XVPD (La-Lu)), CI-OPT, improved COSX, DLPNO-Multilevel,           
  DOCKER, DRACO, updates on ESD, GOAT, IRC, LR-CPCM, MBIS, meta-GGA TD-DFT gradient, ML-optimized integration grids, 
  MM, NACMEs, nearIR, NEB, NEB-TS, NL-DFT gradient (VV10), 2- and 3-layer-ONIOM, interface openCOSMO-RS, QMMM,   
  Crystal-QMMM, SF, symmetry and pop. for TD-DFT, r2SCAN hybrids, SOLVATOR                                   
                                                                         
[Other institutions]                                                     
  V. Asgeirsson          : NEB                                           
  Christoph Bannwarth    : sTDA-DFT, sTD-DFT, PBEh-3c, B97-3c, D3        
  Sebastian Ehlert       : rSCAN, r2SCAN, r2SCAN-3c, D4, dhf basis sets  
  Marvin Friede          : D4 for Fr, Ra, Ac-Lr                          
  Lars Goerigk           : TD-DFT with DH, B97 family of functionals     
  Stefan Grimme          : VdW corrections, initial TS optimization, DFT functionals, gCP, sTDA/sTD-DF 
  Waldemar Hujo          : DFT-NL                                        
  H. Jonsson             : NEB                                           
  Holger Kruse           : gCP                                           
  Marcel Mueller         : wB97X-3c, vDZP basis set                      
  Hagen Neugebauer       : wr2SCAN                                       
  Tobias Risthaus        : range-separated hybrid DFT                    
  Lukas Wittmann         : regularized MP2, r2SCAN double-hybrids, wr2SCAN        
                                                                         
We gratefully acknowledge several colleagues who have allowed us to      
interface, adapt or use parts of their codes:                            
  Ed Valeev, F. Pavosevic, A. Kumar             : LibInt (2-el integral package), F12 methods 
  Garnet Chan, S. Sharma, J. Yang, R. Olivares  : DMRG                   
  Ulf Ekstrom                                   : XCFun DFT Library      
  Mihaly Kallay                                 : mrcc  (arbitrary order and MRCC methods)
  Frank Weinhold                                : gennbo (NPA and NBO analysis)           
  Simon Mueller                                 : openCOSMO-RS                            
  Christopher J. Cramer and Donald G. Truhlar   : smd solvation model                     
  S Lehtola, MJT Oliveira, MAL Marques          : LibXC Library                           
  Liviu Ungur et al                             : ANISO software                          


 Your calculation uses the libint2 library for the computation of 2-el integrals
 For citations please refer to: http://libint.valeyev.net

 Your ORCA version has been built with support for libXC version: 6.2.2
 For citations please refer to: https://libxc.gitlab.io

 This ORCA versions uses:
   CBLAS   interface :  Fast vector & matrix operations
   LAPACKE interface :  Fast linear algebra routines
   SCALAPACK package :  Parallel linear algebra routines
   Shared memory     :  Shared parallel matrices
   BLAS/LAPACK       :  OpenBLAS 0.3.27  USE64BITINT DYNAMIC_ARCH NO_AFFINITY SkylakeX SINGLE_THREADED
        Core in use  :  SkylakeX
   Copyright (c) 2011-2014, The OpenBLAS Project


NOTE: MaxCore=8000 MB was set to SCF,MP2,MDCI,CIPSI,MRCI and CIS
      => If you want to overwrite this, your respective input block should be placed after the MaxCore statement
Your calculation utilizes the atom-pairwise dispersion correction
with the Becke-Johnson damping scheme (D3BJ)


Your calculation utilizes the SMD solvation module
Please cite in your paper:
A.V. Marenich, C.J. Cramer, D.G. Truhlar J. Phys. Chem. B, 113, (2009), 6378 

Warning: RI is on but no J-basis has been assigned. Assigning Def2/J (nothing to worry about!)
================================================================================

----- Orbital basis set information -----
Your calculation utilizes the basis: def2-TZVP
   F. Weigend and R. Ahlrichs, Phys. Chem. Chem. Phys. 7, 3297 (2005).

----- AuxJ basis set information -----
Your calculation utilizes the auxiliary basis: def2/J
   F. Weigend, Phys. Chem. Chem. Phys. 8, 1057 (2006).

================================================================================
                                        WARNINGS
                       Please study these warnings very carefully!
================================================================================



WARNING: SCAN, rSCAN, or r2SCAN functional requested.
  ===> : libXC variant has now been activated.



WARNING: your system is open-shell and RHF/RKS was chosen
  ===> : WILL SWITCH to UHF/UKS


WARNING: Geometry Optimization
  ===> : Switching off AutoStart
         For restart on a previous wavefunction, please use MOREAD

================================================================================
                                       INPUT FILE
================================================================================
NAME = rf_mecn_opt_r2s_C8_D_B.inp
|  1> !r2scanh def2-TZVP opt d3 TightSCF SlowConv defgrid2
|  2> 
|  3> %pal
|  4> nprocs 20
|  5> end
|  6>  
|  7> %scf
|  8> MaxIter 1500
|  9> end
| 10>  
| 11> %maxcore 8000 #verificar
| 12>  
| 13> !CPCM
| 14> %cpcm smd true
| 15> SMDsolvent "ACETONITRILE"
| 16> end
| 17>  
| 18> * xyz -1 2
| 19> 6        4.790427000     -0.033865800     -0.529943200
| 20> 8        5.449345000     -1.206924000     -0.894594600
| 21> 8        4.978223000      1.323071000     -0.737377200
| 22> 6        3.506687600     -0.338741600      0.376153800
| 23> 6        2.222300000      0.400524800     -0.110681600
| 24> 6        0.900506800     -0.386389800      0.175703000
| 25> 6       -0.395261200      0.487294000      0.065549000
| 26> 6       -1.705693600     -0.364773800     -0.068373600
| 27> 6       -3.005136200      0.445344800      0.258164000
| 28> 6       -4.319880200     -0.214526000     -0.270540800
| 29> 9        3.211587400     -1.692050400      0.412735200
| 30> 9        3.741061800      0.055285800      1.689948800
| 31> 9        2.125696800      1.616867800      0.483236600
| 32> 9        2.314152400      0.589704000     -1.455769200
| 33> 9        0.794028800     -1.413561400     -0.700839000
| 34> 9        0.958350600     -0.884509000      1.435093400
| 35> 9       -0.498373400      1.260265600      1.173340200
| 36> 9       -0.299075000      1.289512600     -1.020910800
| 37> 9       -1.641790400     -1.418189000      0.779523800
| 38> 9       -1.792381400     -0.831391600     -1.336863600
| 39> 9       -2.918792200      1.679227200     -0.295171200
| 40> 9       -3.119771000      0.573779800      1.598579800
| 41> 9       -5.365669800      0.430528600      0.260394200
| 42> 9       -4.396020400     -0.128550600     -1.602941800
| 43> *
| 44> 
| 45>                          ****END OF INPUT****
================================================================================

                       *****************************
                       * Geometry Optimization Run *
                       *****************************

Geometry optimization settings:
Update method            Update   .... BFGS
Choice of coordinates    CoordSys .... (2022) Redundant Internals
Initial Hessian          InHess   .... Almloef's Model
Max. no of cycles        MaxIter  .... 72

Convergence Tolerances:
Energy Change            TolE     ....  5.0000e-06 Eh
Max. Gradient            TolMAXG  ....  3.0000e-04 Eh/bohr
RMS Gradient             TolRMSG  ....  1.0000e-04 Eh/bohr
Max. Displacement        TolMAXD  ....  4.0000e-03 bohr
RMS Displacement         TolRMSD  ....  2.0000e-03 bohr
Strict Convergence                .... False

------------------------------------------------------------------------------
                        ORCA OPTIMIZATION COORDINATE SETUP
------------------------------------------------------------------------------

The optimization will be done in redundant internal coordinates (2022)
Making redundant internal coordinates   ...  (2022 redundants) done
Evaluating the initial hessian          ...  (Almloef) done
Evaluating the coordinates              ...  done
Calculating the B-matrix                .... done
Calculating the G-matrix                .... done
Diagonalizing the G-matrix              .... done
Small eigenvalue found = 5.990e-03
Small eigenvalue found = 1.572e-02
The first mode is                       ....   39
The number of degrees of freedom        ....   66

    -----------------------------------------------------------------
                    Redundant Internal Coordinates


    -----------------------------------------------------------------
         Definition                    Initial Value    Approx d2E/dq
    -----------------------------------------------------------------
      1. B(O   1,C   0)                  1.3940         0.551454   
      2. B(O   2,C   0)                  1.3855         0.568952   
      3. B(C   3,C   0)                  1.6006         0.288221   
      4. B(C   4,C   3)                  1.5599         0.334759   
      5. B(C   5,C   4)                  1.5647         0.328824   
      6. B(C   6,C   5)                  1.5667         0.326486   
      7. B(C   7,C   6)                  1.5688         0.323927   
      8. B(C   8,C   7)                  1.5657         0.327637   
      9. B(C   9,C   8)                  1.5632         0.330714   
     10. B(F  10,C   3)                  1.3856         0.528443   
     11. B(F  11,C   3)                  1.3915         0.517117   
     12. B(F  12,C   4)                  1.3570         0.586881   
     13. B(F  13,C   4)                  1.3614         0.577499   
     14. B(F  14,C   5)                  1.3545         0.592326   
     15. B(F  15,C   5)                  1.3556         0.590092   
     16. B(F  16,C   6)                  1.3547         0.591865   
     17. B(F  17,C   6)                  1.3540         0.593567   
     18. B(F  18,C   7)                  1.3538         0.593973   
     19. B(F  19,C   7)                  1.3544         0.592672   
     20. B(F  20,C   8)                  1.3550         0.591238   
     21. B(F  21,C   8)                  1.3514         0.599114   
     22. B(F  22,C   9)                  1.3385         0.628179   
     23. B(F  23,C   9)                  1.3373         0.630929   
     24. A(O   1,C   0,O   2)          136.1318         0.413163   
     25. A(O   2,C   0,C   3)          112.3347         0.371210   
     26. A(O   1,C   0,C   3)          111.5249         0.369222   
     27. A(C   4,C   3,F  10)          107.2033         0.374492   
     28. A(C   0,C   3,F  10)          111.8265         0.364982   
     29. A(F  10,C   3,F  11)          106.7094         0.399684   
     30. A(C   4,C   3,F  11)          107.4072         0.373095   
     31. A(C   0,C   3,C   4)          113.1687         0.341363   
     32. A(C   0,C   3,F  11)          110.2099         0.363632   
     33. A(C   3,C   4,F  12)          110.2926         0.381351   
     34. A(F  12,C   4,F  13)          108.2194         0.415201   
     35. A(C   3,C   4,C   5)          113.5839         0.349005   
     36. A(C   5,C   4,F  13)          107.9208         0.379109   
     37. A(C   3,C   4,F  13)          108.5818         0.380286   
     38. A(C   5,C   4,F  12)          108.0911         0.380169   
     39. A(F  14,C   5,F  15)          109.0206         0.417483   
     40. A(C   4,C   5,C   6)          113.9128         0.347536   
     41. A(C   6,C   5,F  15)          107.7906         0.380059   
     42. A(C   4,C   5,F  15)          108.5900         0.380529   
     43. A(C   6,C   5,F  14)          108.2026         0.380308   
     44. A(C   4,C   5,F  14)          109.2282         0.380779   
     45. A(C   5,C   6,C   7)          113.2023         0.346660   
     46. A(F  16,C   6,F  17)          108.8752         0.417862   
     47. A(C   7,C   6,F  17)          108.2186         0.379927   
     48. A(C   5,C   6,F  17)          109.1523         0.380446   
     49. A(C   7,C   6,F  16)          108.4284         0.379738   
     50. A(C   5,C   6,F  16)          108.8835         0.380256   
     51. A(C   8,C   7,F  18)          108.1296         0.380723   
     52. A(C   6,C   7,F  18)          109.2524         0.379972   
     53. A(F  18,C   7,F  19)          108.7561         0.418014   
     54. A(C   6,C   7,C   8)          113.2298         0.346865   
     55. A(C   8,C   7,F  19)          108.6915         0.380579   
     56. A(C   6,C   7,F  19)          108.6955         0.379828   
     57. A(C   9,C   8,F  21)          107.7127         0.381912   
     58. A(C   7,C   8,F  21)          109.0521         0.381293   
     59. A(C   9,C   8,F  20)          107.4499         0.381036   
     60. A(C   7,C   8,C   9)          114.1471         0.348078   
     61. A(F  20,C   8,F  21)          108.8987         0.418476   
     62. A(C   7,C   8,F  20)          109.4572         0.380419   
     63. A(F  22,C   9,F  23)          108.6464         0.426961   
     64. A(C   8,C   9,F  23)          110.9604         0.385362   
     65. A(C   8,C   9,F  22)          108.6349         0.385069   
     66. D(F  11,C   3,C   0,O   1)    108.6317         0.006601   
     67. D(F  10,C   3,C   0,O   1)     -9.8890         0.006601   
     68. D(C   4,C   3,C   0,O   1)   -131.0839         0.006601   
     69. D(C   4,C   3,C   0,O   2)     49.8076         0.006601   
     70. D(F  10,C   3,C   0,O   2)    171.0025         0.006601   
     71. D(C   5,C   4,C   3,C   0)    148.6429         0.009100   
     72. D(F  12,C   4,C   3,F  10)    146.3851         0.009100   
     73. D(F  12,C   4,C   3,C   0)    -89.8453         0.009100   
     74. D(F  12,C   4,C   3,F  11)     32.0233         0.009100   
     75. D(C   5,C   4,C   3,F  10)     24.8733         0.009100   
     76. D(C   5,C   4,C   3,F  11)    -89.4885         0.009100   
     77. D(F  14,C   5,C   4,C   3)    -74.9661         0.008811   
     78. D(C   6,C   5,C   4,F  12)     41.2001         0.008811   
     79. D(C   6,C   5,C   4,C   3)    163.9326         0.008811   
     80. D(C   6,C   5,C   4,F  13)    -75.6292         0.008811   
     81. D(F  14,C   5,C   4,F  13)     45.4721         0.008811   
     82. D(F  14,C   5,C   4,F  12)    162.3014         0.008811   
     83. D(F  16,C   6,C   5,F  14)    161.9826         0.008700   
     84. D(F  16,C   6,C   5,C   4)    -76.3465         0.008700   
     85. D(C   7,C   6,C   5,F  15)    -76.4529         0.008700   
     86. D(C   7,C   6,C   5,F  14)     41.3107         0.008700   
     87. D(F  16,C   6,C   5,F  15)     44.2190         0.008700   
     88. D(C   7,C   6,C   5,C   4)    162.9815         0.008700   
     89. D(F  18,C   7,C   6,F  17)    162.9167         0.008578   
     90. D(F  18,C   7,C   6,F  16)    -79.1358         0.008578   
     91. D(F  18,C   7,C   6,C   5)     41.7939         0.008578   
     92. D(C   8,C   7,C   6,F  17)    -76.5134         0.008578   
     93. D(C   8,C   7,C   6,F  16)     41.4341         0.008578   
     94. D(C   8,C   7,C   6,C   5)    162.3638         0.008578   
     95. D(C   9,C   8,C   7,F  18)    -76.3785         0.008755   
     96. D(C   9,C   8,C   7,C   6)    162.4166         0.008755   
     97. D(F  20,C   8,C   7,F  19)    -78.9355         0.008755   
     98. D(F  20,C   8,C   7,F  18)    163.1633         0.008755   
     99. D(F  20,C   8,C   7,C   6)     41.9584         0.008755   
    100. D(C   9,C   8,C   7,F  19)     41.5227         0.008755   
    101. D(F  23,C   9,C   8,F  20)     50.3013         0.008360   
    102. D(F  23,C   9,C   8,C   7)    -71.2711         0.008360   
    103. D(F  22,C   9,C   8,F  21)     48.1091         0.008360   
    104. D(F  22,C   9,C   8,F  20)    -69.0724         0.008360   
    105. D(F  22,C   9,C   8,C   7)    169.3552         0.008360   
    -----------------------------------------------------------------

Number of atoms                         .... 24
Number of degrees of freedom            .... 105


         *************************************************************
         *                GEOMETRY OPTIMIZATION CYCLE   1            *
         *************************************************************
---------------------------------
CARTESIAN COORDINATES (ANGSTROEM)
---------------------------------
  C      4.790427   -0.033866   -0.529943
  O      5.449345   -1.206924   -0.894595
  O      4.978223    1.323071   -0.737377
  C      3.506688   -0.338742    0.376154
  C      2.222300    0.400525   -0.110682
  C      0.900507   -0.386390    0.175703
  C     -0.395261    0.487294    0.065549
  C     -1.705694   -0.364774   -0.068374
  C     -3.005136    0.445345    0.258164
  C     -4.319880   -0.214526   -0.270541
  F      3.211587   -1.692050    0.412735
  F      3.741062    0.055286    1.689949
  F      2.125697    1.616868    0.483237
  F      2.314152    0.589704   -1.455769
  F      0.794029   -1.413561   -0.700839
  F      0.958351   -0.884509    1.435093
  F     -0.498373    1.260266    1.173340
  F     -0.299075    1.289513   -1.020911
  F     -1.641790   -1.418189    0.779524
  F     -1.792381   -0.831392   -1.336864
  F     -2.918792    1.679227   -0.295171
  F     -3.119771    0.573780    1.598580
  F     -5.365670    0.430529    0.260394
  F     -4.396020   -0.128551   -1.602942

----------------------------
CARTESIAN COORDINATES (A.U.)
----------------------------
  NO LB      ZA    FRAG     MASS         X           Y           Z
   0 C     6.0000    0    12.011    9.052595   -0.063997   -1.001448
   1 O     8.0000    0    15.999   10.297770   -2.280756   -1.690539
   2 O     8.0000    0    15.999    9.407478    2.500242   -1.393441
   3 C     6.0000    0    12.011    6.626679   -0.640129    0.710828
   4 C     6.0000    0    12.011    4.199538    0.756882   -0.209158
   5 C     6.0000    0    12.011    1.701711   -0.730171    0.332031
   6 C     6.0000    0    12.011   -0.746935    0.920852    0.123870
   7 C     6.0000    0    12.011   -3.223294   -0.689323   -0.129207
   8 C     6.0000    0    12.011   -5.678884    0.841580    0.487859
   9 C     6.0000    0    12.011   -8.163391   -0.405395   -0.511248
  10 F     9.0000    0    18.998    6.069021   -3.197512    0.779956
  11 F     9.0000    0    18.998    7.069582    0.104475    3.193540
  12 F     9.0000    0    18.998    4.016985    3.055437    0.913185
  13 F     9.0000    0    18.998    4.373114    1.114379   -2.751005
  14 F     9.0000    0    18.998    1.500497   -2.671244   -1.324394
  15 F     9.0000    0    18.998    1.811020   -1.671480    2.711934
  16 F     9.0000    0    18.998   -0.941789    2.381557    2.217292
  17 F     9.0000    0    18.998   -0.565170    2.436826   -1.929242
  18 F     9.0000    0    18.998   -3.102534   -2.679989    1.473086
  19 F     9.0000    0    18.998   -3.387110   -1.571102   -2.526306
  20 F     9.0000    0    18.998   -5.515718    3.173280   -0.557793
  21 F     9.0000    0    18.998   -5.895513    1.084287    3.020878
  22 F     9.0000    0    18.998  -10.139646    0.813581    0.492074
  23 F     9.0000    0    18.998   -8.307275   -0.242925   -3.029121

--------------------------------
INTERNAL COORDINATES (ANGSTROEM)
--------------------------------
 C      0   0   0     0.000000000000     0.00000000     0.00000000
 O      1   0   0     1.393990356793     0.00000000     0.00000000
 O      1   2   0     1.385486802956   136.13177198     0.00000000
 C      1   2   3     1.600608594862   111.52489317   181.18992567
 C      4   1   2     1.559863783763   113.16872737   228.91614990
 C      5   4   1     1.564732561934   113.58394786   148.64287440
 C      6   5   4     1.566675459667   113.91280616   163.93256239
 C      7   6   5     1.568817348692   113.20226571   162.98152714
 C      8   7   6     1.565717094808   113.22984595   162.36375422
 C      9   8   7     1.563173062643   114.14707705   162.41661495
 F      4   1   2     1.385592665621   111.82651119   350.11101305
 F      4   1   2     1.391490625050   110.20991618   108.63170802
 F      5   4   1     1.357041377479   110.29260564   270.15468021
 F      5   4   1     1.361428031433   108.58179722    28.57841973
 F      6   5   4     1.354527570075   109.22822656   285.03385927
 F      6   5   4     1.355556277776   108.59004089    43.81583148
 F      7   6   5     1.354739297058   108.88346185   283.65347401
 F      7   6   5     1.353957667090   109.15230848    42.38718856
 F      8   7   6     1.353771473879   109.25240264    41.79387651
 F      8   7   6     1.354368423305   108.69554158   283.25540020
 F      9   8   7     1.355028009646   109.45719767    41.95842364
 F      9   8   7     1.351425618925   109.05210362   282.91820052
 F     10   9   8     1.338530275591   108.63493714   169.35523750
 F     10   9   8     1.337341214598   110.96044107   288.72891896

---------------------------
INTERNAL COORDINATES (A.U.)
---------------------------
 C      0   0   0     0.000000000000     0.00000000     0.00000000
 O      1   0   0     2.634260007667     0.00000000     0.00000000
 O      1   2   0     2.618190619750   136.13177198     0.00000000
 C      1   2   3     3.024711891890   111.52489317   181.18992567
 C      4   1   2     2.947715357535   113.16872737   228.91614990
 C      5   4   1     2.956916014884   113.58394786   148.64287440
 C      6   5   4     2.960587559506   113.91280616   163.93256239
 C      7   6   5     2.964635143173   113.20226571   162.98152714
 C      8   7   6     2.958776512386   113.22984595   162.36375422
 C      9   8   7     2.953968988318   114.14707705   162.41661495
 F      4   1   2     2.618390671194   111.82651119   350.11101305
 F      4   1   2     2.629536199263   110.20991618   108.63170802
 F      5   4   1     2.564436555835   110.29260564   270.15468021
 F      5   4   1     2.572726130452   108.58179722    28.57841973
 F      6   5   4     2.559686148288   109.22822656   285.03385927
 F      6   5   4     2.561630124115   108.59004089    43.81583148
 F      7   6   5     2.560086254300   108.88346185   283.65347401
 F      7   6   5     2.558609187723   109.15230848    42.38718856
 F      8   7   6     2.558257333546   109.25240264    41.79387651
 F      8   7   6     2.559385404477   108.69554158   283.25540020
 F      9   8   7     2.560631842023   109.45719767    41.95842364
 F      9   8   7     2.553824310132   109.05210362   282.91820052
 F     10   9   8     2.529455642830   108.63493714   169.35523750
 F     10   9   8     2.527208643196   110.96044107   288.72891896

---------------------
BASIS SET INFORMATION
---------------------
There are 3 groups of distinct atoms

 Group   1 Type C   : 11s6p2d1f contracted to 5s3p2d1f pattern {62111/411/11/1}
 Group   2 Type O   : 11s6p2d1f contracted to 5s3p2d1f pattern {62111/411/11/1}
 Group   3 Type F   : 11s6p2d1f contracted to 5s3p2d1f pattern {62111/411/11/1}

Atom   0C    basis set group =>   1
Atom   1O    basis set group =>   2
Atom   2O    basis set group =>   2
Atom   3C    basis set group =>   1
Atom   4C    basis set group =>   1
Atom   5C    basis set group =>   1
Atom   6C    basis set group =>   1
Atom   7C    basis set group =>   1
Atom   8C    basis set group =>   1
Atom   9C    basis set group =>   1
Atom  10F    basis set group =>   3
Atom  11F    basis set group =>   3
Atom  12F    basis set group =>   3
Atom  13F    basis set group =>   3
Atom  14F    basis set group =>   3
Atom  15F    basis set group =>   3
Atom  16F    basis set group =>   3
Atom  17F    basis set group =>   3
Atom  18F    basis set group =>   3
Atom  19F    basis set group =>   3
Atom  20F    basis set group =>   3
Atom  21F    basis set group =>   3
Atom  22F    basis set group =>   3
Atom  23F    basis set group =>   3
---------------------------------
AUXILIARY/J BASIS SET INFORMATION
---------------------------------
There are 3 groups of distinct atoms

 Group   1 Type C   : 12s5p4d2f1g contracted to 6s4p3d1f1g pattern {711111/2111/211/2/1}
 Group   2 Type O   : 12s5p4d2f1g contracted to 6s4p3d1f1g pattern {711111/2111/211/2/1}
 Group   3 Type F   : 12s5p4d2f1g contracted to 6s4p3d1f1g pattern {711111/2111/211/2/1}

Atom   0C    basis set group =>   1
Atom   1O    basis set group =>   2
Atom   2O    basis set group =>   2
Atom   3C    basis set group =>   1
Atom   4C    basis set group =>   1
Atom   5C    basis set group =>   1
Atom   6C    basis set group =>   1
Atom   7C    basis set group =>   1
Atom   8C    basis set group =>   1
Atom   9C    basis set group =>   1
Atom  10F    basis set group =>   3
Atom  11F    basis set group =>   3
Atom  12F    basis set group =>   3
Atom  13F    basis set group =>   3
Atom  14F    basis set group =>   3
Atom  15F    basis set group =>   3
Atom  16F    basis set group =>   3
Atom  17F    basis set group =>   3
Atom  18F    basis set group =>   3
Atom  19F    basis set group =>   3
Atom  20F    basis set group =>   3
Atom  21F    basis set group =>   3
Atom  22F    basis set group =>   3
Atom  23F    basis set group =>   3


           ************************************************************
           *        Program running with 20 parallel MPI-processes    *
           *              working on a common directory               *
           ************************************************************
------------------------------------------------------------------------------
                             ORCA STARTUP CALCULATIONS
                           -- RI-GTO INTEGRALS CHOSEN --
------------------------------------------------------------------------------
------------------------------------------------------------------------------
                   ___                                                        
                  /   \      - P O W E R E D   B Y -                         
                 /     \                                                     
                 |  |  |   _    _      __       _____    __    __             
                 |  |  |  | |  | |    /  \     |  _  \  |  |  /  |          
                  \  \/   | |  | |   /    \    | | | |  |  | /  /          
                 / \  \   | |__| |  /  /\  \   | |_| |  |  |/  /          
                |  |  |   |  __  | /  /__\  \  |    /   |      \           
                |  |  |   | |  | | |   __   |  |    \   |  |\   \          
                \     /   | |  | | |  |  |  |  | |\  \  |  | \   \       
                 \___/    |_|  |_| |__|  |__|  |_| \__\ |__|  \__/        
                                                                              
                      - O R C A' S   B I G   F R I E N D -                    
                                      &                                       
                       - I N T E G R A L  F E E D E R -                       
                                                                              
 v1 FN, 2020, v2 2021, v3 2022-2024                                           
------------------------------------------------------------------------------


----------------------
SHARK INTEGRAL PACKAGE
----------------------

Number of atoms                             ...     24
Number of basis functions                   ...    744
Number of shells                            ...    264
Maximum angular momentum                    ...      3
Integral batch strategy                     ... SHARK/LIBINT Hybrid
RI-J (if used) integral strategy            ... SPLIT-RIJ (Revised 2003 algorithm where possible)
Printlevel                                  ...      1
Contraction scheme used                     ... SEGMENTED contraction
Prescreening option                         ... SCHWARTZ
   Thresh                                   ... 2.500e-11
   Tcut                                     ... 2.500e-12
   Tpresel                                  ... 2.500e-12 
Coulomb Range Separation                    ... NOT USED
Exchange Range Separation                   ... NOT USED
Multipole approximations                    ... NOT USED
Finite Nucleus Model                        ... NOT USED
CABS basis                                  ... NOT available
Auxiliary Coulomb fitting basis             ... AVAILABLE
   # of basis functions in Aux-J            ...   1176
   # of shells in Aux-J                     ...    360
   Maximum angular momentum in Aux-J        ...      4
Auxiliary J/K fitting basis                 ... NOT available
Auxiliary Correlation fitting basis         ... NOT available
Auxiliary 'external' fitting basis          ... NOT available

Checking pre-screening integrals            ... done (  0.0 sec) Dimension = 264
Check shell pair data                       ... done (  0.0 sec)
Shell pair information
Shell pair cut-off parameter TPreSel        ...   2.5e-12
Total number of shell pairs                 ...     34980
Shell pairs after pre-screening             ...     21952
Total number of primitive shell pairs       ...    115968
Primitive shell pairs kept                  ...     46583
          la=0 lb=0:   4091 shell pairs
          la=1 lb=0:   5963 shell pairs
          la=1 lb=1:   2091 shell pairs
          la=2 lb=0:   3267 shell pairs
          la=2 lb=1:   2428 shell pairs
          la=2 lb=2:    688 shell pairs
          la=3 lb=0:   1477 shell pairs
          la=3 lb=1:   1167 shell pairs
          la=3 lb=2:    629 shell pairs
          la=3 lb=3:    151 shell pairs

Calculating one electron integrals          ... done (  0.0 sec)
Calculating RI/J V-Matrix + Cholesky decomp.... done (  0.1 sec)
Calculating Nuclear repulsion               ... done (  0.0 sec) ENN=   2636.152804373618 Eh

Diagonalization of the overlap matrix:
Smallest eigenvalue                        ... 6.454e-05
Time for diagonalization                   ...    0.118 sec
Threshold for overlap eigenvalues          ... 1.000e-07
Number of eigenvalues below threshold      ... 0
Time for construction of square roots      ...    0.056 sec
Total time needed                          ...    0.179 sec

-------------------
DFT GRID GENERATION
-------------------

General Integration Accuracy     IntAcc      ... 4.388
Radial Grid Type                 RadialGrid  ... OptM3 with GC (2021)
Angular Grid (max. ang.)         AngularGrid ... 4 (Lebedev-302)
Angular grid pruning method      GridPruning ... 4 (adaptive)
Weight generation scheme         WeightScheme... mBecke (2022)
Basis function cutoff            BFCut       ... 1.0000e-11
Integration weight cutoff        WCut        ... 1.0000e-14
Partially contracted basis set               ... off
Rotationally invariant grid construction     ... off
Angular grids for H and He will be reduced by one unit

Total number of grid points                  ...   145464
Total number of batches                      ...     2283
Average number of points per batch           ...       63
Average number of grid points per atom       ...     6061

--------------------
COSX GRID GENERATION
--------------------

GRIDX 1
-------
General Integration Accuracy     IntAcc      ... 3.816
Radial Grid Type                 RadialGrid  ... OptM3 with GC (2021)
Angular Grid (max. ang.)         AngularGrid ... 1 (Lebedev-50)
Angular grid pruning method      GridPruning ... 4 (adaptive)
Weight generation scheme         WeightScheme... mBecke (2022)
Basis function cutoff            BFCut       ... 1.0000e-11
Integration weight cutoff        WCut        ... 1.0000e-14
Partially contracted basis set               ... on
Rotationally invariant grid construction     ... off
Angular grids for H and He will be reduced by one unit

Total number of grid points                  ...    18276
Total number of batches                      ...      153
Average number of points per batch           ...      119
Average number of grid points per atom       ...      762
UseSFitting                                  ... on

GRIDX 2
-------
General Integration Accuracy     IntAcc      ... 4.020
Radial Grid Type                 RadialGrid  ... OptM3 with GC (2021)
Angular Grid (max. ang.)         AngularGrid ... 2 (Lebedev-110)
Angular grid pruning method      GridPruning ... 4 (adaptive)
Weight generation scheme         WeightScheme... mBecke (2022)
Basis function cutoff            BFCut       ... 1.0000e-11
Integration weight cutoff        WCut        ... 1.0000e-14
Partially contracted basis set               ... on
Rotationally invariant grid construction     ... off
Angular grids for H and He will be reduced by one unit

Total number of grid points                  ...    43326
Total number of batches                      ...      353
Average number of points per batch           ...      122
Average number of grid points per atom       ...     1805
UseSFitting                                  ... on

GRIDX 3
-------
General Integration Accuracy     IntAcc      ... 4.338
Radial Grid Type                 RadialGrid  ... OptM3 with GC (2021)
Angular Grid (max. ang.)         AngularGrid ... 3 (Lebedev-194)
Angular grid pruning method      GridPruning ... 4 (adaptive)
Weight generation scheme         WeightScheme... mBecke (2022)
Basis function cutoff            BFCut       ... 1.0000e-11
Integration weight cutoff        WCut        ... 1.0000e-14
Partially contracted basis set               ... on
Rotationally invariant grid construction     ... off
Angular grids for H and He will be reduced by one unit

Total number of grid points                  ...    95983
Total number of batches                      ...      759
Average number of points per batch           ...      126
Average number of grid points per atom       ...     3999
UseSFitting                                  ... on
Initializing property integral containers    ... done (  0.0 sec)

SHARK setup successfully completed in   4.1 seconds

Maximum memory used throughout the entire STARTUP-calculation: 57.0 MB


           ************************************************************
           *        Program running with 20 parallel MPI-processes    *
           *              working on a common directory               *
           ************************************************************
-------------------------------------------------------------------------------
                                 ORCA GUESS
                   Start orbitals & Density for SCF / CASSCF
-------------------------------------------------------------------------------

------------
SCF SETTINGS
------------
Hamiltonian:
 Density Functional     Method          .... DFT(GTOs)
  Functional kind                       .... Exchange
  Functional name                       .... Re-regularized SCAN exchange by Furness et al
  Functional family                     .... MGGA
  Functional refs                              
    [ 0] J. W. Furness, A. D. Kaplan, J. Ning, J. P. Perdew, and J. Sun.,  J. Phys. Chem. Lett. 11, 8208-8215 (2020), doi: 10.1021/acs.jpclett.0c02405
    [ 1] J. W. Furness, A. D. Kaplan, J. Ning, J. P. Perdew, and J. Sun.,  J. Phys. Chem. Lett. 11, 9248-9248 (2020), doi: 10.1021/acs.jpclett.0c03077
  Functional external parameters        .... 6
    Parameter  0 _c1        =  6.670000e-01 : c1 parameter        
    Parameter  1 _c2        =  8.000000e-01 : c2 parameter        
    Parameter  2 _d         =  1.240000e+00 : d parameter         
    Parameter  3 _k1        =  6.500000e-02 : k1 parameter        
    Parameter  4 _eta       =  1.000000e-03 : eta parameter       
    Parameter  5 _dp2       =  3.610000e-01 : dp2 parameter       
  Functional kind                       .... Correlation
  Functional name                       .... Re-regularized SCAN correlation by Furness et al
  Functional family                     .... MGGA
  Functional refs                              
    [ 0] J. W. Furness, A. D. Kaplan, J. Ning, J. P. Perdew, and J. Sun.,  J. Phys. Chem. Lett. 11, 8208-8215 (2020), doi: 10.1021/acs.jpclett.0c02405
    [ 1] J. W. Furness, A. D. Kaplan, J. Ning, J. P. Perdew, and J. Sun.,  J. Phys. Chem. Lett. 11, 9248-9248 (2020), doi: 10.1021/acs.jpclett.0c03077
  Functional external parameters        .... 1
    Parameter  0 _eta       =  1.000000e-03 : Regularization parameter
 Gradients option       PostSCFGGA      .... off
 Hybrid DFT is turned on
   Fraction HF Exchange ScalHFX         ....  0.100000
   Scaling of DF-GGA-X  ScalDFX         ....  0.900000
   Scaling of DF-GGA-C  ScalDFC         ....  1.000000
   Scaling of DF-LDA-C  ScalLDAC        ....  1.000000
   Perturbative correction              ....  0.000000
   NL short-range parameter             .... 11.900000
 RI-approximation to the Coulomb term is turned on
   Number of AuxJ basis functions       .... 1176
   RIJ-COSX (HFX calculated with COS-X)).... on


General Settings:
 Integral files         IntName         .... rf_mecn_opt_r2s_C8_D_B
 Hartree-Fock type      HFTyp           .... UHF
 Total Charge           Charge          ....   -1
 Multiplicity           Mult            ....    2
 Number of Electrons    NEL             ....  191
 Basis Dimension        Dim             ....  744
 Nuclear Repulsion      ENuc            ....   2636.1528043736 Eh

Convergence Acceleration:
 AO-DIIS                CNVDIIS         .... on
   Start iteration      DIISMaxIt       ....     0
   Startup error        DIISStart       ....  0.200000
   # of expansion vecs  DIISMaxEq       ....     5
   Bias factor          DIISBfac        ....   1.050
   Max. coefficient     DIISMaxC        ....  10.000
 MO-DIIS                CNVKDIIS        .... off
 Trust-Rad. Augm. Hess. CNVTRAH         .... auto
   Auto Start mean grad. ratio tolernc. ....  1.125000
   Auto Start start iteration           ....    50
   Auto Start num. interpolation iter.  ....    10
   Max. Number of Micro iterations      ....    24
   Max. Number of Macro iterations      .... Maxiter - #DIIS iter
   Number of Davidson start vectors     ....     2
   Converg. threshold    (grad. norm)   ....   1.000e-05
   Grad. Scal. Fac. for Micro threshold ....   0.100
   Minimum threshold for Micro iter.    ....   1.000e-02
   NR start threshold (gradient norm)   ....   1.000e-04
   Initial trust radius                 ....   0.400
   Minimum AH scaling param. (alpha)    ....   1.000
   Maximum AH scaling param. (alpha)    .... 1000.000
   Quad. conv. algorithm                .... NR
   White noise on init. David. guess    .... on
   Maximum white noise                  ....   0.010
   Pseudo random numbers                .... off
   Inactive MOs                         .... canonical
   Orbital update algorithm             .... Taylor
   Preconditioner                       .... Diag
   Full preconditioner red. dimension   ....   250
 SOSCF                  CNVSOSCF        .... on
   Start iteration      SOSCFMaxIt      ....   150
   Startup grad/error   SOSCFStart      ....  0.001000
   Hessian update       SOSCFHessUp     .... L-BFGS
 Level Shifting         CNVShift        .... on
   Level shift para.    LevelShift      ....    0.2500
   Turn off err/grad.   ShiftErr        ....    0.0000
 Zerner damping         CNVZerner       .... off
 Static damping         CNVDamp         .... on
   Fraction old density DampFac         ....    0.8500
   Max. Damping (<1)    DampMax         ....    0.9800
   Min. Damping (>=0)   DampMin         ....    0.0000
   Turn off err/grad.   DampErr         ....    0.0300

SCF Procedure:
 Maximum # iterations   MaxIter         ....  1500
 SCF integral mode      SCFMode         .... Direct
   Integral package                     .... SHARK and LIBINT hybrid scheme
 Reset frequency        DirectResetFreq ....    20
 Integral Threshold     Thresh          ....  2.500e-11 Eh
 Primitive CutOff       TCut            ....  2.500e-12 Eh

Convergence Tolerance:
 Convergence Check Mode ConvCheckMode   .... Total+1el-Energy
 Convergence forced     ConvForced      .... 0
 Energy Change          TolE            ....  1.000e-08 Eh
 1-El. energy change                    ....  1.000e-05 Eh
 Orbital Gradient       TolG            ....  1.000e-05
 Orbital Rotation angle TolX            ....  1.000e-05
 DIIS Error             TolErr          ....  5.000e-07

------------------------------
INITIAL GUESS: MODEL POTENTIAL
------------------------------
Loading Hartree-Fock densities                     ... done
Calculating cut-offs                               ... done
Initializing the effective Hamiltonian             ... done
Setting up the integral package (SHARK)            ... done
Starting the Coulomb interaction                   ... done (   0.2 sec)
Making the grid                                    ... done (   0.6 sec)
Mapping shells                                     ... done
Starting the XC term evaluation                    ... done (   0.2 sec)
  promolecular density results
     # of electrons  =    190.000239354
     EX              =   -197.015607016
     EC              =     -6.648973499
     EX+EC           =   -203.664580514
Transforming the Hamiltonian                       ... done (   0.1 sec)
Diagonalizing the Hamiltonian                      ... done (   0.1 sec)
Back transforming the eigenvectors                 ... done (   0.0 sec)
Now organizing SCF variables                       ... done
                      ------------------
                      INITIAL GUESS DONE (   1.3 sec)
                      ------------------
             **** ENERGY FILE WAS UPDATED (rf_mecn_opt_r2s_C8_D_B.en.tmp) ****
Finished Guess after   2.1 sec
Maximum memory used throughout the entire GUESS-calculation: 45.8 MB


           ************************************************************
           *        Program running with 20 parallel MPI-processes    *
           *              working on a common directory               *
           ************************************************************

-------------------------------------------------------------------------------------------
                                      ORCA LEAN-SCF
                              memory conserving SCF solver
-------------------------------------------------------------------------------------------

--------------------
CPCM SOLVATION MODEL
--------------------
CPCM parameters:
  Epsilon                                         ...      35.6880
  Refrac                                          ...       1.3442
  Rsolv                                           ...       1.3000
  Surface type                                    ... GAUSSIAN VDW
  Discretization scheme                           ... Constant charge density
    Threshold for H atoms                         ...       5.0000 (charges/Ang^2)
    Threshold for non-H atoms                     ...       5.0000 (charges/Ang^2)
  Epsilon function type                           ...         CPCM
Solvent:                                          ... ACETONITRILE
SMD-CDS solvent descriptors:
  Soln                                            ...       1.3442
  Soln25                                          ...       1.3416
  Sola                                            ...       0.0700
  Solb                                            ...       0.3200
  Solg                                            ...      41.2500
  Solc                                            ...       0.0000
  Solh                                            ...       0.0000
Radii:
  Scheme                                          ... Element-dependent radii
  Radius for C  used is    3.4960 Bohr (=   1.8500 Ang.)
  Radius for O  used is    4.0969 Bohr (=   2.1680 Ang.)
  Radius for F  used is    3.2692 Bohr (=   1.7300 Ang.)
Calculating surface                               ...        done! (  0.0s)
Cavity surface points                             ...         2109
Cavity Volume                                     ...    2129.1244
Cavity Surface-area                               ...    1106.2271
Calculating surface distance matrix               ...        done! (  0.0s)
Performing Cholesky decomposition & store         ...        done! (  0.1s)
Overall time for CPCM initialization              ...                 0.2s

----------------------------------------D-I-I-S--------------------------------------------
Iteration    Energy (Eh)           Delta-E    RMSDP     MaxDP     DIISErr   Damp  Time(sec)
-------------------------------------------------------------------------------------------
               ***  Starting incremental Fock matrix formation  ***
    1    -1852.5832455280137765     0.00e+00  2.72e-04  3.48e-02  1.57e-01  0.850   7.8
Warning: op=0 Small HOMO/LUMO gap (   0.051) - skipping pre-diagonalization
         Will do a full diagonalization
    2    -1852.7283210738200978    -1.45e-01  3.40e-04  6.60e-02  1.05e-01  0.850   5.3
                               ***Turning on AO-DIIS***
    3    -1852.8028361722731461    -7.45e-02  1.60e-04  2.79e-02  6.06e-02  0.850   4.8
    4    -1852.8469303498545742    -4.41e-02  8.52e-05  9.47e-03  4.42e-02  0.850   4.4
    5    -1852.8782629120137244    -3.13e-02  5.85e-05  8.72e-03  3.66e-02  0.850   4.2
    6    -1852.9031403389949446    -2.49e-02  4.88e-05  8.12e-03  3.19e-02  0.850   4.3
    7    -1852.9239624369934063    -2.08e-02  4.40e-05  7.63e-03  2.75e-02  0.850   4.2
    8    -1852.9417520123010945    -1.78e-02  2.62e-04  4.69e-02  2.30e-02  0.000   4.1
    9    -1853.0359440752649789    -9.42e-02  2.76e-05  2.61e-03  4.75e-03  0.000   4.5
   10    -1853.0361828982618135    -2.39e-04  1.18e-05  1.75e-03  3.05e-03  0.000   4.0
                              *** Initializing SOSCF ***
---------------------------------------S-O-S-C-F--------------------------------------
Iteration    Energy (Eh)           Delta-E    RMSDP     MaxDP     MaxGrad    Time(sec)
--------------------------------------------------------------------------------------
   11    -1853.0362717723687638    -8.89e-05  6.88e-06  1.40e-03  5.26e-04     4.2
               *** Restarting incremental Fock matrix formation ***
   12    -1853.0362907505164003    -1.90e-05  5.87e-06  1.15e-03  3.83e-04     7.4
   13    -1853.0362912396390129    -4.89e-07  3.85e-06  7.15e-04  5.94e-04     4.6
   14    -1853.0362946171958356    -3.38e-06  1.67e-06  2.31e-04  8.46e-05     4.4
   15    -1853.0362946529780857    -3.58e-08  9.38e-07  1.66e-04  4.03e-05     4.2
   16    -1853.0362948721835892    -2.19e-07  3.89e-07  5.11e-05  1.38e-05     4.0
   17    -1853.0362948308134037     4.14e-08  3.32e-07  5.40e-05  3.51e-05     3.9
   18    -1853.0362948724155103    -4.16e-08  2.60e-07  2.27e-05  1.71e-05     3.7
   19    -1853.0362949053292141    -3.29e-08  1.71e-07  2.42e-05  1.96e-05     3.6
   20    -1853.0362948770639377     2.83e-08  1.44e-07  1.70e-05  3.20e-07     3.4
                  *** Gradient check signals convergence ***

               *****************************************************
               *                     SUCCESS                       *
               *           SCF CONVERGED AFTER  20 CYCLES          *
               *****************************************************

Recomputing exchange energy using gridx3       ... done (    8.574 sec)
Old exchange energy                            :    -19.873080578 Eh
New exchange energy                            :    -19.873085157 Eh
Exchange energy change after final integration :     -0.000004579 Eh
Total energy after final integration           :  -1853.036299456 Eh

SMD CDS free energy correction energy :                 4.00857     Kcal/mol
Total Energy after SMD CDS correction =             -1853.029911397 Eh
             **** ENERGY FILE WAS UPDATED (rf_mecn_opt_r2s_C8_D_B.en.tmp) ****

----------------
TOTAL SCF ENERGY
----------------

Total Energy       :      -1853.02991139701408 Eh          -50423.50737 eV

Components:
Nuclear Repulsion  :       2636.15280437361844 Eh           71733.36466 eV
Electronic Energy  :      -4489.10526549646329 Eh         -122154.76450 eV
One Electron Energy:      -7847.17981262701869 Eh         -213532.61849 eV
Two Electron Energy:       3358.07454713055540 Eh           91377.85399 eV
CPCM Dielectric    :         -0.08383375421913 Eh              -2.28123 eV
SMD CDS (Gcds)     :          0.00638805869426 Eh               0.17383 eV

Virial components:
Potential Energy   :      -3698.53536676362501 Eh         -100642.26388 eV
Kinetic Energy     :       1845.50545536661093 Eh           50218.75651 eV
Virial Ratio       :          2.00407717896933

DFT components:
N(Alpha)           :       96.000002469348 electrons
N(Beta)            :       94.999986343556 electrons
N(Total)           :      190.999988812904 electrons
E(X)               :     -179.872952536672 Eh       
E(C)               :       -6.628397305921 Eh       
E(XC)              :     -186.501349842592 Eh       

CPCM Solvation Model Properties:
Surface-charge          :          0.99008749622183
Corrected charge        :          1.00000000000000
Outlying charge corr.   :          0.00000537750262 Eh               0.00015 eV
Free-energy (cav+disp)  :          0.00638805869426 Eh               0.17383 eV

---------------
SCF CONVERGENCE
---------------

  Last Energy change         ...   -2.8265e-08  Tolerance :   1.0000e-08
  Last MAX-Density change    ...    1.6992e-05  Tolerance :   1.0000e-07
  Last RMS-Density change    ...    1.4426e-07  Tolerance :   5.0000e-09
  Last DIIS Error            ...    5.2628e-04  Tolerance :   5.0000e-07
  Last Orbital Gradient      ...    3.1958e-07  Tolerance :   1.0000e-05
  Last Orbital Rotation      ...    9.4758e-07  Tolerance :   1.0000e-05


----------------------
UHF SPIN CONTAMINATION
----------------------

Warning: in a DFT calculation there is little theoretical justification to 
         calculate <S**2> as in Hartree-Fock theory. We will do it anyways
         but you should keep in mind that the values have only limited relevance

Expectation value of <S**2>     :     0.753852
Ideal value S*(S+1) for S=0.5   :     0.750000
Deviation                       :     0.003852

----------------
ORBITAL ENERGIES
----------------
                 SPIN UP ORBITALS
  NO   OCC          E(Eh)            E(eV) 
   0   1.0000     -24.730718      -672.9571 
   1   1.0000     -24.730470      -672.9503 
   2   1.0000     -24.729831      -672.9329 
   3   1.0000     -24.728488      -672.8964 
   4   1.0000     -24.728480      -672.8961 
   5   1.0000     -24.728303      -672.8913 
   6   1.0000     -24.728296      -672.8911 
   7   1.0000     -24.725020      -672.8020 
   8   1.0000     -24.724485      -672.7874 
   9   1.0000     -24.722621      -672.7367 
  10   1.0000     -24.714624      -672.5191 
  11   1.0000     -24.710333      -672.4023 
  12   1.0000     -24.693081      -671.9329 
  13   1.0000     -24.690406      -671.8601 
  14   1.0000     -19.076355      -519.0940 
  15   1.0000     -19.074672      -519.0482 
  16   1.0000     -10.387988      -282.6715 
  17   1.0000     -10.387501      -282.6583 
  18   1.0000     -10.387210      -282.6503 
  19   1.0000     -10.381785      -282.5027 
  20   1.0000     -10.369746      -282.1751 
  21   1.0000     -10.369655      -282.1727 
  22   1.0000     -10.345773      -281.5228 
  23   1.0000     -10.278883      -279.7026 
  24   1.0000      -1.332540       -36.2603 
  25   1.0000      -1.322317       -35.9821 
  26   1.0000      -1.311295       -35.6822 
  27   1.0000      -1.304658       -35.5015 
  28   1.0000      -1.301946       -35.4278 
  29   1.0000      -1.293757       -35.2049 
  30   1.0000      -1.264760       -34.4159 
  31   1.0000      -1.262318       -34.3494 
  32   1.0000      -1.258173       -34.2366 
  33   1.0000      -1.253220       -34.1019 
  34   1.0000      -1.249645       -34.0046 
  35   1.0000      -1.248720       -33.9794 
  36   1.0000      -1.237504       -33.6742 
  37   1.0000      -1.209630       -32.9157 
  38   1.0000      -0.964183       -26.2368 
  39   1.0000      -0.904457       -24.6115 
  40   1.0000      -0.841723       -22.9045 
  41   1.0000      -0.819508       -22.2999 
  42   1.0000      -0.789395       -21.4805 
  43   1.0000      -0.749218       -20.3873 
  44   1.0000      -0.703314       -19.1382 
  45   1.0000      -0.670636       -18.2489 
  46   1.0000      -0.662033       -18.0148 
  47   1.0000      -0.627528       -17.0759 
  48   1.0000      -0.625642       -17.0246 
  49   1.0000      -0.617565       -16.8048 
  50   1.0000      -0.605620       -16.4797 
  51   1.0000      -0.604861       -16.4591 
  52   1.0000      -0.599957       -16.3256 
  53   1.0000      -0.587993       -16.0001 
  54   1.0000      -0.585849       -15.9418 
  55   1.0000      -0.580159       -15.7869 
  56   1.0000      -0.571596       -15.5539 
  57   1.0000      -0.566451       -15.4139 
  58   1.0000      -0.563723       -15.3397 
  59   1.0000      -0.555504       -15.1160 
  60   1.0000      -0.540495       -14.7076 
  61   1.0000      -0.539541       -14.6817 
  62   1.0000      -0.494486       -13.4556 
  63   1.0000      -0.493959       -13.4413 
  64   1.0000      -0.488489       -13.2925 
  65   1.0000      -0.482732       -13.1358 
  66   1.0000      -0.475717       -12.9449 
  67   1.0000      -0.470102       -12.7921 
  68   1.0000      -0.468933       -12.7603 
  69   1.0000      -0.465245       -12.6600 
  70   1.0000      -0.461550       -12.5594 
  71   1.0000      -0.458999       -12.4900 
  72   1.0000      -0.452911       -12.3243 
  73   1.0000      -0.450440       -12.2571 
  74   1.0000      -0.447897       -12.1879 
  75   1.0000      -0.442946       -12.0532 
  76   1.0000      -0.436953       -11.8901 
  77   1.0000      -0.434042       -11.8109 
  78   1.0000      -0.432505       -11.7690 
  79   1.0000      -0.431197       -11.7335 
  80   1.0000      -0.427806       -11.6412 
  81   1.0000      -0.424489       -11.5509 
  82   1.0000      -0.420799       -11.4505 
  83   1.0000      -0.418060       -11.3760 
  84   1.0000      -0.412843       -11.2340 
  85   1.0000      -0.402047       -10.9403 
  86   1.0000      -0.401307       -10.9201 
  87   1.0000      -0.386595       -10.5198 
  88   1.0000      -0.378032       -10.2868 
  89   1.0000      -0.360175        -9.8009 
  90   1.0000      -0.339032        -9.2255 
  91   1.0000      -0.327453        -8.9104 
  92   1.0000      -0.277435        -7.5494 
  93   1.0000      -0.241370        -6.5680 
  94   1.0000      -0.233563        -6.3556 
  95   1.0000      -0.230391        -6.2693 
  96   0.0000      -0.032922        -0.8959 
  97   0.0000      -0.016651        -0.4531 
  98   0.0000      -0.002244        -0.0611 
  99   0.0000       0.030222         0.8224 
 100   0.0000       0.044323         1.2061 
 101   0.0000       0.074658         2.0316 
 102   0.0000       0.088578         2.4103 
 103   0.0000       0.105250         2.8640 
 104   0.0000       0.116018         3.1570 
 105   0.0000       0.118630         3.2281 
 106   0.0000       0.129106         3.5131 

                 SPIN DOWN ORBITALS
  NO   OCC          E(Eh)            E(eV) 
   0   1.0000     -24.729782      -672.9316 
   1   1.0000     -24.728479      -672.8961 
   2   1.0000     -24.728457      -672.8955 
   3   1.0000     -24.728294      -672.8911 
   4   1.0000     -24.726833      -672.8513 
   5   1.0000     -24.726586      -672.8446 
   6   1.0000     -24.726427      -672.8403 
   7   1.0000     -24.725154      -672.8057 
   8   1.0000     -24.724484      -672.7874 
   9   1.0000     -24.722621      -672.7367 
  10   1.0000     -24.714623      -672.5191 
  11   1.0000     -24.710333      -672.4023 
  12   1.0000     -24.693081      -671.9329 
  13   1.0000     -24.690406      -671.8601 
  14   1.0000     -19.076355      -519.0940 
  15   1.0000     -19.074672      -519.0482 
  16   1.0000     -10.388096      -282.6745 
  17   1.0000     -10.387526      -282.6590 
  18   1.0000     -10.385882      -282.6142 
  19   1.0000     -10.381794      -282.5030 
  20   1.0000     -10.369658      -282.1727 
  21   1.0000     -10.352139      -281.6960 
  22   1.0000     -10.345774      -281.5228 
  23   1.0000     -10.278883      -279.7026 
  24   1.0000      -1.331559       -36.2336 
  25   1.0000      -1.319081       -35.8940 
  26   1.0000      -1.309149       -35.6238 
  27   1.0000      -1.304611       -35.5003 
  28   1.0000      -1.298291       -35.3283 
  29   1.0000      -1.293751       -35.2047 
  30   1.0000      -1.264306       -34.4035 
  31   1.0000      -1.262195       -34.3461 
  32   1.0000      -1.256219       -34.1835 
  33   1.0000      -1.250706       -34.0334 
  34   1.0000      -1.248692       -33.9786 
  35   1.0000      -1.246336       -33.9145 
  36   1.0000      -1.237504       -33.6742 
  37   1.0000      -1.209630       -32.9157 
  38   1.0000      -0.964184       -26.2368 
  39   1.0000      -0.904458       -24.6115 
  40   1.0000      -0.840866       -22.8811 
  41   1.0000      -0.816693       -22.2233 
  42   1.0000      -0.784384       -21.3442 
  43   1.0000      -0.743190       -20.2232 
  44   1.0000      -0.698144       -18.9975 
  45   1.0000      -0.664531       -18.0828 
  46   1.0000      -0.662005       -18.0141 
  47   1.0000      -0.625810       -17.0292 
  48   1.0000      -0.624681       -16.9984 
  49   1.0000      -0.616113       -16.7653 
  50   1.0000      -0.604227       -16.4419 
  51   1.0000      -0.602054       -16.3827 
  52   1.0000      -0.597905       -16.2698 
  53   1.0000      -0.585828       -15.9412 
  54   1.0000      -0.583513       -15.8782 
  55   1.0000      -0.577247       -15.7077 
  56   1.0000      -0.570434       -15.5223 
  57   1.0000      -0.564916       -15.3721 
  58   1.0000      -0.562227       -15.2990 
  59   1.0000      -0.555290       -15.1102 
  60   1.0000      -0.539677       -14.6853 
  61   1.0000      -0.509143       -13.8545 
  62   1.0000      -0.494080       -13.4446 
  63   1.0000      -0.492390       -13.3986 
  64   1.0000      -0.486522       -13.2389 
  65   1.0000      -0.481951       -13.1145 
  66   1.0000      -0.475340       -12.9347 
  67   1.0000      -0.468879       -12.7589 
  68   1.0000      -0.467354       -12.7174 
  69   1.0000      -0.461279       -12.5520 
  70   1.0000      -0.460582       -12.5331 
  71   1.0000      -0.453838       -12.3496 
  72   1.0000      -0.452362       -12.3094 
  73   1.0000      -0.448793       -12.2123 
  74   1.0000      -0.443950       -12.0805 
  75   1.0000      -0.441693       -12.0191 
  76   1.0000      -0.436104       -11.8670 
  77   1.0000      -0.433005       -11.7827 
  78   1.0000      -0.430519       -11.7150 
  79   1.0000      -0.428868       -11.6701 
  80   1.0000      -0.427046       -11.6205 
  81   1.0000      -0.424181       -11.5425 
  82   1.0000      -0.419606       -11.4180 
  83   1.0000      -0.417682       -11.3657 
  84   1.0000      -0.411710       -11.2032 
  85   1.0000      -0.401317       -10.9204 
  86   1.0000      -0.400600       -10.9009 
  87   1.0000      -0.384708       -10.4684 
  88   1.0000      -0.377999       -10.2859 
  89   1.0000      -0.357263        -9.7216 
  90   1.0000      -0.339012        -9.2250 
  91   1.0000      -0.325980        -8.8704 
  92   1.0000      -0.241370        -6.5680 
  93   1.0000      -0.233563        -6.3556 
  94   1.0000      -0.230389        -6.2692 
  95   0.0000      -0.110778        -3.0144 
  96   0.0000      -0.032810        -0.8928 
  97   0.0000      -0.013795        -0.3754 
  98   0.0000      -0.000398        -0.0108 
  99   0.0000       0.033516         0.9120 
 100   0.0000       0.050118         1.3638 
 101   0.0000       0.079836         2.1724 
 102   0.0000       0.095634         2.6023 
 103   0.0000       0.105885         2.8813 
 104   0.0000       0.119882         3.2622 
 105   0.0000       0.122868         3.3434 
*Only the first 10 virtual orbitals were printed.

                    ********************************
                    * MULLIKEN POPULATION ANALYSIS *
                    ********************************

--------------------------------------------
MULLIKEN ATOMIC CHARGES AND SPIN POPULATIONS
--------------------------------------------
   0 C :    0.240826   -0.000005
   1 O :   -0.557142   -0.000015
   2 O :   -0.559567    0.000001
   3 C :    0.355789   -0.000034
   4 C :    0.327620   -0.000082
   5 C :    0.328761   -0.000277
   6 C :    0.313729   -0.000293
   7 C :    0.310047   -0.000974
   8 C :    0.390288    0.006090
   9 C :    0.273593    0.839584
  10 F :   -0.198224    0.000001
  11 F :   -0.211169   -0.000003
  12 F :   -0.180406    0.000002
  13 F :   -0.180375   -0.000004
  14 F :   -0.170738    0.000009
  15 F :   -0.171259   -0.000014
  16 F :   -0.167833   -0.000007
  17 F :   -0.167080   -0.000010
  18 F :   -0.169859    0.000561
  19 F :   -0.168554    0.000340
  20 F :   -0.166061    0.028918
  21 F :   -0.168795   -0.001873
  22 F :   -0.151593    0.064544
  23 F :   -0.152000    0.063543
Sum of atomic charges         :   -1.0000000
Sum of atomic spin populations:    1.0000000

-----------------------------------------------------
MULLIKEN REDUCED ORBITAL CHARGES AND SPIN POPULATIONS
-----------------------------------------------------
CHARGE
  0 C s       :     3.146675  s :     3.146675
      pz      :     0.833408  p :     2.402410
      px      :     0.856463
      py      :     0.712540
      dz2     :     0.012490  d :     0.193798
      dxz     :     0.014971
      dyz     :     0.057097
      dx2y2   :     0.050896
      dxy     :     0.058344
      f0      :     0.001648  f :     0.016291
      f+1     :     0.001039
      f-1     :     0.002046
      f+2     :     0.002446
      f-2     :     0.001602
      f+3     :     0.003590
      f-3     :     0.003920

  1 O s       :     3.875834  s :     3.875834
      pz      :     1.592645  p :     4.656976
      px      :     1.636245
      py      :     1.428086
      dz2     :     0.003077  d :     0.023098
      dxz     :     0.001660
      dyz     :     0.005290
      dx2y2   :     0.005470
      dxy     :     0.007602
      f0      :     0.000110  f :     0.001233
      f+1     :     0.000055
      f-1     :     0.000170
      f+2     :     0.000115
      f-2     :     0.000188
      f+3     :     0.000356
      f-3     :     0.000240

  2 O s       :     3.873147  s :     3.873147
      pz      :     1.619542  p :     4.661591
      px      :     1.737881
      py      :     1.304168
      dz2     :     0.003108  d :     0.023574
      dxz     :     0.000323
      dyz     :     0.006072
      dx2y2   :     0.008751
      dxy     :     0.005321
      f0      :     0.000116  f :     0.001255
      f+1     :     0.000016
      f-1     :     0.000222
      f+2     :     0.000211
      f-2     :     0.000032
      f+3     :     0.000285
      f-3     :     0.000374

  3 C s       :     3.112222  s :     3.112222
      pz      :     0.680513  p :     2.261461
      px      :     0.940960
      py      :     0.639988
      dz2     :     0.045111  d :     0.246242
      dxz     :     0.046585
      dyz     :     0.061145
      dx2y2   :     0.042504
      dxy     :     0.050897
      f0      :     0.005155  f :     0.024286
      f+1     :     0.003543
      f-1     :     0.003699
      f+2     :     0.003329
      f-2     :     0.001981
      f+3     :     0.003567
      f-3     :     0.003012

  4 C s       :     3.122314  s :     3.122314
      pz      :     0.608037  p :     2.248390
      px      :     0.939360
      py      :     0.700992
      dz2     :     0.060201  d :     0.274984
      dxz     :     0.057299
      dyz     :     0.067090
      dx2y2   :     0.034027
      dxy     :     0.056367
      f0      :     0.003469  f :     0.026693
      f+1     :     0.004813
      f-1     :     0.007802
      f+2     :     0.002085
      f-2     :     0.002595
      f+3     :     0.003480
      f-3     :     0.002449

  5 C s       :     3.148976  s :     3.148976
      pz      :     0.584943  p :     2.210724
      px      :     0.916016
      py      :     0.709765
      dz2     :     0.075065  d :     0.284505
      dxz     :     0.060662
      dyz     :     0.058934
      dx2y2   :     0.032385
      dxy     :     0.057458
      f0      :     0.004745  f :     0.027034
      f+1     :     0.004282
      f-1     :     0.005973
      f+2     :     0.003059
      f-2     :     0.004285
      f+3     :     0.002546
      f-3     :     0.002143

  6 C s       :     3.150211  s :     3.150211
      pz      :     0.578107  p :     2.223794
      px      :     0.928622
      py      :     0.717065
      dz2     :     0.080898  d :     0.285227
      dxz     :     0.060917
      dyz     :     0.054307
      dx2y2   :     0.032062
      dxy     :     0.057043
      f0      :     0.005919  f :     0.027039
      f+1     :     0.003821
      f-1     :     0.004198
      f+2     :     0.003940
      f-2     :     0.005132
      f+3     :     0.002100
      f-3     :     0.001929

  7 C s       :     3.140916  s :     3.140916
      pz      :     0.586988  p :     2.238212
      px      :     0.944716
      py      :     0.706508
      dz2     :     0.073620  d :     0.283853
      dxz     :     0.060708
      dyz     :     0.060359
      dx2y2   :     0.031849
      dxy     :     0.057315
      f0      :     0.004569  f :     0.026973
      f+1     :     0.004260
      f-1     :     0.006304
      f+2     :     0.002916
      f-2     :     0.004196
      f+3     :     0.002612
      f-3     :     0.002115

  8 C s       :     3.081380  s :     3.081380
      pz      :     0.618123  p :     2.216012
      px      :     0.931652
      py      :     0.666237
      dz2     :     0.058485  d :     0.285141
      dxz     :     0.058758
      dyz     :     0.070006
      dx2y2   :     0.034801
      dxy     :     0.063090
      f0      :     0.003450  f :     0.027179
      f+1     :     0.004925
      f-1     :     0.008004
      f+2     :     0.002234
      f-2     :     0.002322
      f+3     :     0.003806
      f-3     :     0.002438

  9 C s       :     3.279462  s :     3.279462
      pz      :     0.595336  p :     2.214419
      px      :     0.727058
      py      :     0.892025
      dz2     :     0.043077  d :     0.207090
      dxz     :     0.055892
      dyz     :     0.046152
      dx2y2   :     0.036770
      dxy     :     0.025199
      f0      :     0.003182  f :     0.025435
      f+1     :     0.007189
      f-1     :     0.005768
      f+2     :     0.001901
      f-2     :     0.002140
      f+3     :     0.003460
      f-3     :     0.001795

 10 F s       :     3.923387  s :     3.923387
      pz      :     1.898284  p :     5.259246
      px      :     1.887340
      py      :     1.473622
      dz2     :     0.002087  d :     0.014977
      dxz     :     0.000315
      dyz     :     0.002854
      dx2y2   :     0.005690
      dxy     :     0.004031
      f0      :     0.000048  f :     0.000614
      f+1     :     0.000015
      f-1     :     0.000119
      f+2     :     0.000071
      f-2     :     0.000018
      f+3     :     0.000167
      f-3     :     0.000176

 11 F s       :     3.927460  s :     3.927460
      pz      :     1.494299  p :     5.268744
      px      :     1.903145
      py      :     1.871300
      dz2     :     0.006384  d :     0.014371
      dxz     :     0.003506
      dyz     :     0.003545
      dx2y2   :     0.000468
      dxy     :     0.000468
      f0      :     0.000207  f :     0.000593
      f+1     :     0.000136
      f-1     :     0.000168
      f+2     :     0.000038
      f-2     :     0.000038
      f+3     :     0.000003
      f-3     :     0.000003

 12 F s       :     3.926842  s :     3.926842
      pz      :     1.811255  p :     5.236499
      px      :     1.903215
      py      :     1.522030
      dz2     :     0.002086  d :     0.016381
      dxz     :     0.000813
      dyz     :     0.005274
      dx2y2   :     0.004846
      dxy     :     0.003363
      f0      :     0.000076  f :     0.000684
      f+1     :     0.000004
      f-1     :     0.000121
      f+2     :     0.000180
      f-2     :     0.000064
      f+3     :     0.000109
      f-3     :     0.000130

 13 F s       :     3.927856  s :     3.927856
      pz      :     1.450688  p :     5.235586
      px      :     1.904581
      py      :     1.880318
      dz2     :     0.008354  d :     0.016254
      dxz     :     0.003780
      dyz     :     0.003512
      dx2y2   :     0.000301
      dxy     :     0.000307
      f0      :     0.000330  f :     0.000678
      f+1     :     0.000156
      f-1     :     0.000159
      f+2     :     0.000011
      f-2     :     0.000018
      f+3     :     0.000001
      f-3     :     0.000002

 14 F s       :     3.928305  s :     3.928305
      pz      :     1.704802  p :     5.225116
      px      :     1.899677
      py      :     1.620636
      dz2     :     0.002719  d :     0.016628
      dxz     :     0.001657
      dyz     :     0.006540
      dx2y2   :     0.003117
      dxy     :     0.002595
      f0      :     0.000078  f :     0.000689
      f+1     :     0.000014
      f-1     :     0.000184
      f+2     :     0.000188
      f-2     :     0.000105
      f+3     :     0.000060
      f-3     :     0.000061

 15 F s       :     3.928066  s :     3.928066
      pz      :     1.499351  p :     5.225902
      px      :     1.903066
      py      :     1.823485
      dz2     :     0.006819  d :     0.016603
      dxz     :     0.003365
      dyz     :     0.004958
      dx2y2   :     0.000642
      dxy     :     0.000818
      f0      :     0.000227  f :     0.000689
      f+1     :     0.000110
      f-1     :     0.000233
      f+2     :     0.000051
      f-2     :     0.000060
      f+3     :     0.000005
      f-3     :     0.000004

 16 F s       :     3.929378  s :     3.929378
      pz      :     1.589524  p :     5.221085
      px      :     1.898337
      py      :     1.733224
      dz2     :     0.004560  d :     0.016682
      dxz     :     0.002664
      dyz     :     0.006313
      dx2y2   :     0.001553
      dxy     :     0.001592
      f0      :     0.000118  f :     0.000689
      f+1     :     0.000056
      f-1     :     0.000251
      f+2     :     0.000122
      f-2     :     0.000102
      f+3     :     0.000021
      f-3     :     0.000018

 17 F s       :     3.929399  s :     3.929399
      pz      :     1.600409  p :     5.220264
      px      :     1.898860
      py      :     1.720995
      dz2     :     0.004333  d :     0.016725
      dxz     :     0.002566
      dyz     :     0.006433
      dx2y2   :     0.001698
      dxy     :     0.001695
      f0      :     0.000111  f :     0.000692
      f+1     :     0.000050
      f-1     :     0.000249
      f+2     :     0.000132
      f-2     :     0.000105
      f+3     :     0.000024
      f-3     :     0.000021

 18 F s       :     3.930088  s :     3.930088
      pz      :     1.716535  p :     5.222376
      px      :     1.900907
      py      :     1.604935
      dz2     :     0.002600  d :     0.016703
      dxz     :     0.001550
      dyz     :     0.006534
      dx2y2   :     0.003347
      dxy     :     0.002672
      f0      :     0.000077  f :     0.000692
      f+1     :     0.000010
      f-1     :     0.000176
      f+2     :     0.000195
      f-2     :     0.000101
      f+3     :     0.000065
      f-3     :     0.000068

 19 F s       :     3.929655  s :     3.929655
      pz      :     1.491984  p :     5.221491
[...]
      f+1     :    -0.000000
      f-1     :    -0.000000
      f+2     :    -0.000000
      f-2     :    -0.000000
      f+3     :     0.000000
      f-3     :    -0.000000

 16 F s       :     0.000030  s :     0.000030
      pz      :     0.000015  p :     0.000041
      px      :     0.000012
      py      :     0.000014
      dz2     :     0.000000  d :    -0.000002
      dxz     :    -0.000001
      dyz     :    -0.000000
      dx2y2   :    -0.000001
      dxy     :     0.000001
      f0      :    -0.000000  f :    -0.000000
      f+1     :    -0.000000
      f-1     :    -0.000000
      f+2     :    -0.000000
      f-2     :    -0.000000
      f+3     :    -0.000000
      f-3     :    -0.000000

 17 F s       :     0.000017  s :     0.000017
      pz      :     0.000045  p :     0.000046
      px      :    -0.000025
      py      :     0.000026
      dz2     :    -0.000001  d :    -0.000006
      dxz     :    -0.000004
      dyz     :    -0.000001
      dx2y2   :    -0.000000
      dxy     :     0.000001
      f0      :    -0.000000  f :    -0.000000
      f+1     :    -0.000000
      f-1     :    -0.000000
      f+2     :    -0.000000
      f-2     :    -0.000000
      f+3     :    -0.000000
      f-3     :    -0.000000

 18 F s       :     0.000316  s :     0.000316
      pz      :     0.000157  p :     0.001561
      px      :     0.001518
      py      :    -0.000114
      dz2     :     0.000000  d :     0.000029
      dxz     :    -0.000005
      dyz     :     0.000000
      dx2y2   :     0.000025
      dxy     :     0.000008
      f0      :     0.000000  f :     0.000000
      f+1     :     0.000000
      f-1     :    -0.000000
      f+2     :    -0.000000
      f-2     :     0.000000
      f+3     :     0.000001
      f-3     :    -0.000000

 19 F s       :     0.000102  s :     0.000102
      pz      :    -0.000009  p :     0.001018
      px      :     0.000042
      py      :     0.000986
      dz2     :     0.000004  d :     0.000047
      dxz     :    -0.000002
      dyz     :     0.000014
      dx2y2   :     0.000010
      dxy     :     0.000021
      f0      :    -0.000000  f :     0.000002
      f+1     :     0.000001
      f-1     :     0.000000
      f+2     :     0.000001
      f-2     :     0.000001
      f+3     :     0.000000
      f-3     :    -0.000000

 20 F s       :     0.001839  s :     0.001839
      pz      :     0.000383  p :     0.029296
      px      :     0.008646
      py      :     0.020267
      dz2     :     0.000249  d :     0.000863
      dxz     :     0.000072
      dyz     :    -0.000020
      dx2y2   :     0.000157
      dxy     :     0.000404
      f0      :     0.000004  f :     0.000047
      f+1     :     0.000000
      f-1     :     0.000011
      f+2     :    -0.000001
      f-2     :     0.000013
      f+3     :     0.000018
      f-3     :     0.000002

 21 F s       :    -0.000147  s :    -0.000147
      pz      :    -0.000290  p :    -0.000644
      px      :    -0.000599
      py      :     0.000245
      dz2     :     0.000082  d :    -0.000018
      dxz     :     0.000029
      dyz     :    -0.000104
      dx2y2   :    -0.000007
      dxy     :    -0.000017
      f0      :     0.000002  f :     0.000001
      f+1     :     0.000005
      f-1     :    -0.000005
      f+2     :     0.000000
      f-2     :    -0.000001
      f+3     :     0.000000
      f-3     :     0.000000

 22 F s       :     0.004152  s :     0.004152
      pz      :    -0.000602  p :     0.075058
      px      :    -0.002886
      py      :     0.078545
      dz2     :     0.000713  d :     0.009417
      dxz     :     0.000639
      dyz     :     0.001461
      dx2y2   :     0.000840
      dxy     :     0.005764
      f0      :     0.000017  f :     0.000496
      f+1     :     0.000046
      f-1     :     0.000002
      f+2     :     0.000066
      f-2     :     0.000128
      f+3     :     0.000098
      f-3     :     0.000139

 23 F s       :     0.003953  s :     0.003953
      pz      :    -0.000565  p :     0.071714
      px      :     0.000403
      py      :     0.071876
      dz2     :     0.000902  d :     0.009346
      dxz     :     0.000092
      dyz     :     0.007967
      dx2y2   :    -0.000007
      dxy     :     0.000392
      f0      :     0.000020  f :     0.000500
      f+1     :     0.000012
      f-1     :     0.000421
      f+2     :    -0.000002
      f-2     :     0.000050
      f+3     :    -0.000000
      f-3     :     0.000001



                      *****************************
                      * MAYER POPULATION ANALYSIS *
                      *****************************

  NA   - Mulliken gross atomic population
  ZA   - Total nuclear charge
  QA   - Mulliken gross atomic charge
  VA   - Mayer's total valence
  BVA  - Mayer's bonded valence
  FA   - Mayer's free valence

  ATOM       NA         ZA         QA         VA         BVA        FA
  0 C      5.7883     6.0000     0.2117     4.5863     4.5863     0.0000
  1 O      8.5089     8.0000    -0.5089     1.9582     1.9582     0.0000
  2 O      8.5231     8.0000    -0.5231     1.9434     1.9434     0.0000
  3 C      5.6566     6.0000     0.3434     3.9073     3.9073     0.0000
  4 C      5.7005     6.0000     0.2995     4.1283     4.1283     0.0000
  5 C      5.6693     6.0000     0.3307     4.1840     4.1840     0.0000
  6 C      5.6848     6.0000     0.3152     4.2031     4.2031     0.0000
  7 C      5.6980     6.0000     0.3020     4.1967     4.1966     0.0001
  8 C      5.5903     6.0000     0.4097     4.0834     4.0820     0.0014
  9 C      5.7408     6.0000     0.2592     4.0105     3.2938     0.7167
 10 F      9.2076     9.0000    -0.2076     1.0787     1.0787     0.0000
 11 F      9.2138     9.0000    -0.2138     1.0656     1.0656    -0.0000
 12 F      9.1791     9.0000    -0.1791     1.1316     1.1316     0.0000
 13 F      9.1863     9.0000    -0.1863     1.1234     1.1234     0.0000
 14 F      9.1723     9.0000    -0.1723     1.1431     1.1431     0.0000
 15 F      9.1709     9.0000    -0.1709     1.1470     1.1470     0.0000
 16 F      9.1673     9.0000    -0.1673     1.1510     1.1510     0.0000
 17 F      9.1670     9.0000    -0.1670     1.1533     1.1533     0.0000
 18 F      9.1702     9.0000    -0.1702     1.1526     1.1526     0.0000
 19 F      9.1679     9.0000    -0.1679     1.1498     1.1498     0.0000
 20 F      9.1757     9.0000    -0.1757     1.1380     1.1369     0.0011
 21 F      9.1671     9.0000    -0.1671     1.1484     1.1484     0.0000
 22 F      9.1467     9.0000    -0.1467     1.1642     1.1576     0.0066
 23 F      9.1474     9.0000    -0.1474     1.1636     1.1575     0.0061

  Mayer bond orders larger than 0.100000
B(  0-C ,  1-O ) :   1.8538 B(  0-C ,  2-O ) :   1.8247 B(  0-C ,  3-C ) :   0.8377 
B(  3-C ,  4-C ) :   0.9315 B(  3-C , 10-F ) :   1.0342 B(  3-C , 11-F ) :   1.0252 
B(  4-C ,  5-C ) :   0.9236 B(  4-C , 12-F ) :   1.0639 B(  4-C , 13-F ) :   1.0584 
B(  5-C ,  6-C ) :   0.9322 B(  5-C , 14-F ) :   1.0686 B(  5-C , 15-F ) :   1.0796 
B(  6-C ,  7-C ) :   0.9341 B(  6-C , 16-F ) :   1.0802 B(  6-C , 17-F ) :   1.0798 
B(  7-C ,  8-C ) :   0.9346 B(  7-C , 18-F ) :   1.0727 B(  7-C , 19-F ) :   1.0809 
B(  8-C ,  9-C ) :   0.8933 B(  8-C , 20-F ) :   1.0537 B(  8-C , 21-F ) :   1.0924 
B(  9-C , 22-F ) :   1.1200 B(  9-C , 23-F ) :   1.1276 

-------
TIMINGS
-------

Total SCF time: 0 days 0 hours 0 min 48 sec 

Total time                  ....      48.080 sec
Sum of individual times     ....      46.690 sec  ( 97.1%)

SCF preparation             ....       1.190 sec  (  2.5%)
Fock matrix formation       ....      40.244 sec  ( 83.7%)
  Startup                   ....       0.174 sec  (  0.4% of F)
  Split-RI-J                ....       2.628 sec  (  6.5% of F)
  Chain of spheres X        ....      25.645 sec  ( 63.7% of F)
  XC integration            ....       9.131 sec  ( 22.7% of F)
    Basis function eval.    ....       0.589 sec  (  6.5% of XC)
    Density eval.           ....       2.589 sec  ( 28.4% of XC)
    XC-Functional eval.     ....       0.181 sec  (  2.0% of XC)
    XC-Potential eval.      ....       2.612 sec  ( 28.6% of XC)
  CPCM terms                ....       2.213 sec  (  5.5% of F)
Diagonalization             ....       0.000 sec  (  0.0%)
Density matrix formation    ....       0.555 sec  (  1.2%)
Total Energy calculation    ....       0.292 sec  (  0.6%)
Population analysis         ....       0.368 sec  (  0.8%)
Orbital Transformation      ....       0.492 sec  (  1.0%)
Orbital Orthonormalization  ....       0.000 sec  (  0.0%)
DIIS solution               ....       0.612 sec  (  1.3%)
SOSCF solution              ....       2.935 sec  (  6.1%)
Finished LeanSCF after  48.4 sec

Maximum memory used throughout the entire LEANSCF-calculation: 104.4 MB


-------------------------------------------------------------------------------
                          DFT DISPERSION CORRECTION                            
                                                                               
                              DFTD3 V3.1  Rev 1                                
                          USING Becke-Johnson damping                          
-------------------------------------------------------------------------------
The R2SCANh functional is recognized
Active option DFTDOPT                   ...         4   

molecular C6(AA) [au] = 6303.894855 


            DFT-D V3
 parameters
 s6 scaling factor         :     1.0000 
 a1 scaling factor         :     0.4709 
 s8 scaling factor         :     1.1236 
 a2 scaling factor         :     5.9157 
 ad hoc parameters k1-k3   :    16.0000     1.3333    -4.0000 

 Edisp/kcal,au: -5.105888106160  -0.008136749758 
 E6   /kcal   :  -3.723339727 
 E8   /kcal   :  -1.382548379 
 % E8         :  27.077529908 

-------------------------   ----------------
Dispersion correction           -0.008136750
-------------------------   ----------------


-------------------------   --------------------
FINAL SINGLE POINT ENERGY     -1853.098155930628
-------------------------   --------------------

                                *** OPTIMIZATION RUN DONE ***



           ************************************************************
           *        Program running with 20 parallel MPI-processes    *
           *              working on a common directory               *
           ************************************************************

------------------------------------------------------------------------------
                              ORCA PROPERTY CALCULATIONS
------------------------------------------------------------------------------

GBWName                                 ... rf_mecn_opt_r2s_C8_D_B.gbw
Number of atoms                         ...     24
Number of basis functions               ...    744
Max core memory                         ...   8000 MB

Electric properties:
Dipole moment                           ... YES
Quadrupole moment                       ...  NO
Static polarizability (Dipole/Dipole)   ...  NO
Static polarizability (Dipole/Quad.)    ...  NO
Static polarizability (Quad./Quad.)     ...  NO
Static polarizability (Velocity)        ...  NO

Atomic electric properties:
Dipole moment                           ...  NO
Quadrupole moment                       ...  NO
Static polarizability                   ...  NO

Choice of electric origin               ... Center of mass
Position of electric origin             ...     0.285554     0.102035    -0.008084

General magnetic properties:
Magnetizability                         ...  NO

EPR properties:
g-Tensor (aka g-matrix)                 ...  NO
Zero-Field splitting spin-orbit         ...  NO
Zero-field splitting spin-spin          ...  NO
Hyperfine couplings                     ...  NO (   0 nuclei)
Quadrupole couplings                    ...  NO (   0 nuclei)
Contact density                         ...  NO (   0 nuclei)

NMR properties:
Chemical shifts                         ...  NO (   0 nuclei)
Spin-rotation constants                 ...  NO (   0 nuclei)
Spin-spin couplings                     ...  NO (   0 nuclei,    0 pairs)

Choice of magnetic origin               ... GIAO
Position of magnetic origin             ...     0.000000     0.000000     0.000000

Properties with geometric perturbations:
SCF Hessian                             ...  NO
IR spectrum                             ...  NO
VCD spectrum                            ...  NO
X-ray spectroscopy properties:
SCF XES/XAS/RIXS spectra                ...  NO


-------------
DIPOLE MOMENT
-------------

Method             : SCF
Type of density    : Electron Density
Multiplicity       :   2
Irrep              :   0
Energy             : -1853.0900191808696036 Eh
Relativity type    : 
Basis              : AO
                                X                 Y                 Z
Electronic contribution:    -17.210851667      -0.430849387       1.758089870
Nuclear contribution   :      8.533116735       0.106110786      -0.990644911
                        -----------------------------------------
Total Dipole Moment    :     -8.677734932      -0.324738601       0.767444959
                        -----------------------------------------
Magnitude (a.u.)       :      8.717655101
Magnitude (Debye)      :     22.158518301



--------------------
Rotational spectrum 
--------------------
 
Rotational constants in cm-1:             0.022879             0.004117             0.004089 
Rotational constants in MHz :           685.887750           123.411467           122.570376 

Dipole components along the rotational axes: 
x,y,z [a.u.] :    -8.653642     0.467983     0.944979 
x,y,z [Debye]:   -21.995810     1.189519     2.401945 

 

Dipole moment calculation done in   0.2 sec 

Maximum memory used throughout the entire PROP-calculation: 54.6 MB

--------------------------------
SUGGESTED CITATIONS FOR THIS RUN
--------------------------------

Below you find a list of papers that are relevant to this ORCA run
We neither can nor want to force you to cite these papers, but we appreciate if you do
You receive ORCA, which is the product of decades of hard work by many enthusiastic individuals, for free
The only thing we kindly ask in return is that you cite our papers,
We deeply appreciate it, if you show your appreciation for ORCA by not just citing the generic ORCA reference.

Please note that relegating all ORCA citations to the supporting information does *not* help us.
SI sections are not indexed - citations you put there will not count into any citation statistics
But we need these citations in order to attract the funding resources that allow us to do what we are doing

Therefore, if you are a happy ORCA user, please consider citing a few of the papers listed below in the main body of your paper

In addition to the list printed below, the program has created the file rf_mecn_opt_r2s_C8_D_B.bibtex that contains the list in bibtex format
You can import this file easily into all common literature databanks and citation aid programs


List of essential papers. We consider these as the minimum necessary citations

  1. Neese,F.
     Software update: the ORCA program system, version 5.0
     WIRES Comput. Molec. Sci., 2022 12(1)e1606
     doi.org/10.1002/wcms.1606

List of papers to cite with high priority. The work reported in these papers was absolutely
necessary for this run to complete.
Our perspective: the developers of density functionals and basis sets usually get cited in chemistry papers
Good! But without the algorithms to do something with them, the functionals or basis sets would not do anything.
Hence, in our opinion, the algorithm design and method developments papers are equally worthy of getting cited

  1. Neese,F.
     An improvement of the resolution of the identity approximation for the formation of the Coulomb matrix
     J. Comp. Chem., 2003 24(14)1740-1747
     doi.org/10.1002/jcc.10318
  2. Neese,F.; Wennmohs,F.; Hansen,A.; Becker,U.
     Efficient, approximate and parallel Hartree-Fock and hybrid DFT calculations. A 'chain-of-spheres' algorithm for the Hartree-Fock exchange
     Chem. Phys., 2009 356(1-3)98-109
     doi.org/10.1016/j.chemphys.2008.10.036
  3. Garcia-Rates,M.; Neese,F.
     Effect of the Solute Cavity on the Solvation Energy and its Derivatives within the Framework of the Gaussian Charge Scheme
     J. Comput. Chem., 2020 41 922-939
     doi.org/10.1002/jcc.26139
  4. Helmich-Paris,B.; de Souza,B.; Neese,F.; Izsák,R.
     An improved chain of spheres for exchange algorithm
     J. Chem. Phys., 2021 155 104109
     doi.org/doi: 10.1063/5.0058766.
  5. Neese,F.
     The SHARK Integral Generation and Digestion System
     J. Comp. Chem., 2022  1-16
     doi.org/10.1002/jcc.26942
  6. Lehtola,S.; Steigemann,C.; Oliveira,M.; Marques,M.
     Recent developments in Libxc - A comprehensive library of functionals for density functional theory
     Software X, 2018 7 
     doi.org/10.1016/j.softx.2017.11.002
  7. Grimme,S.; Antony,J.; Ehrlich,S.; Krieg,H.
     A consistent and accurate ab initio parametrization of density functional dispersion correction (DFT-D) for the 94 elements H-Pu
     J. Chem. Phys., 2010 132 154104
     doi.org/10.1063/1.3382344
  8. Grimme,S.; Ehrlich,S.; Goerigk,L.
     Effect of the damping function in dispersion corrected density functional theory
     J. Comput. Chem., 2011 32(7)1456-1465
     doi.org/10.1002/jcc.21759
  9. Bursch,M.; Neugebauer,H.; Ehlert,S.; Grimme,S.
     Dispersion corrected r2SCAN based global hybrid functionals: r2SCANh, r2SCAN0, and r2SCAN50
     J. Phys. Chem., 2022 156(13)134105
     doi.org/10.1063/5.0086040

List of suggested additional citations. These are papers that are important in the 'surrounding' of 
of this run, or papers that preceded the highly important papers. If you like your results we are grateful for a citation.

  1. Izsak,R.; Neese,F.
     An overlap fitted chain of spheres exchange method
     J. Chem. Phys., 2011 135 144105
     doi.org/10.1063/1.3646921
  2. Izsak,R.; Hansen,A.; Neese,F.
     The resolution of identity and chain of spheres approximations for the LPNO-CCSD singles Fock term
     Molec. Phys., 2012 110 2413-2417
     doi.org/10.1080/00268976.2012.687466
  3. Neese,F.
     The ORCA program system
     WIRES Comput. Molec. Sci., 2012 2(1)73-78
     doi.org/10.1002/wcms.81
  4. Izsak,R.; Neese,F.; Klopper,W.
     Robust fitting techniques in the chain of spheres approximation to the Fock exchange: The role of the complementary space
     J. Chem. Phys., 2013 139 
     doi.org/10.1063/1.4819264
  5. Neese,F.
     Software update: the ORCA program system, version 4.0
     WIRES Comput. Molec. Sci., 2018 8(1)1-6
     doi.org/10.1002/wcms.1327
  6. Neese,F.; Wennmohs,F.; Becker,U.; Riplinger,C.
     The ORCA quantum chemistry program package
     J. Chem. Phys., 2020 152 Art. No. L224108
     doi.org/10.1063/5.0004608
  7. Wittmann,L.; Neugebauer,H.; Grimme,S.; Bursch,M.
     Dispersion-corrected r2SCAN based double-hybrid functionals
     J. Chem. Phys., 2023 159(22)224103
     doi.org/10.1063/5.0174988

List of optional additional citations

  1. Neese,F.
     Approximate second-order SCF convergence for spin unrestricted wavefunctions
     Chem. Phys. Lett., 2000 325(1-3)93-98
     doi.org/10.1016/s0009-2614(00)00662-x

Timings for individual modules:

Sum of individual times          ...     1128.958 sec (=  18.816 min)
Startup calculation              ...       52.425 sec (=   0.874 min)   4.6 %
SCF iterations                   ...      826.614 sec (=  13.777 min)  73.2 %
Property calculations            ...        1.243 sec (=   0.021 min)   0.1 %
SCF Gradient evaluation          ...      248.470 sec (=   4.141 min)  22.0 %
Geometry relaxation              ...        0.205 sec (=   0.003 min)   0.0 %
                             ****ORCA TERMINATED NORMALLY****
TOTAL RUN TIME: 0 days 0 hours 18 minutes 57 seconds 630 msec
