
                                 *****************
                                 * O   R   C   A *
                                 *****************

                                            #,                                       
                                            ###                                      
                                            ####                                     
                                            #####                                    
                                            ######                                   
                                           ########,                                 
                                     ,,################,,,,,                         
                               ,,#################################,,                 
                          ,,##########################################,,             
                       ,#########################################, ''#####,          
                    ,#############################################,,   '####,        
                  ,##################################################,,,,####,       
                ,###########''''           ''''###############################       
              ,#####''   ,,,,##########,,,,          '''####'''          '####       
            ,##' ,,,,###########################,,,                        '##       
           ' ,,###''''                  '''############,,,                           
         ,,##''                                '''############,,,,        ,,,,,,###''
      ,#''                                            '''#######################'''  
     '                                                          ''''####''''         
             ,#######,   #######,   ,#######,      ##                                
            ,#'     '#,  ##    ##  ,#'     '#,    #''#        ,####,   ,####,        
            ##       ##  ##   ,#'  ##            #'  '#       #'       #'  '#        
            ##       ##  #######   ##           ,######,      #####,   #    #        
            '#,     ,#'  ##    ##  '#,     ,#' ,#      #,     #,   #   #,  ,#        
             '#######'   ##     ##  '#######'  #'      '#     '####' # '####'        



                #########################################################
                #                        -***-                          #
                #          Department of theory and spectroscopy        #
                #                                                       #
                #                      Frank Neese                      #
                #                                                       #
                #     Directorship, Architecture, Infrastructure        #
                #                    SHARK, DRIVERS                     #
                #        Core code/Algorithms in most modules           #
                #                                                       #
                #        Max Planck Institute fuer Kohlenforschung      #
                #                Kaiser Wilhelm Platz 1                 #
                #                 D-45470 Muelheim/Ruhr                 #
                #                      Germany                          #
                #                                                       #
                #                  All rights reserved                  #
                #                        -***-                          #
                #########################################################


                         Program Version 6.0.1  -  RELEASE   -


 With contributions from (in alphabetic order):
[Max-Planck-Institut fuer Kohlenforschung]                               
  Daniel Aravena         : Magnetic Suceptibility                        
  Michael Atanasov       : Ab Initio Ligand Field Theory (pilot matlab implementation)
  Alexander A. Auer      : GIAO ZORA, VPT2 properties, NMR spectrum      
  Ute Becker             : All parallelization in ORCA, NUMFREQ, NUMCALC 
  Giovanni Bistoni       : ED, misc. LED, open-shell LED, HFLD           
  Martin Brehm           : Molecular dynamics                            
  Dmytro Bykov           : pre 5.0 version of the SCF Hessian            
  Marcos Casanova-Páez   : Triplet and SCS-CIS(D). UHF-(DLPNO)-IP/EA/STEOM-CCSD. UHF-CVS-IP/STEOM-CCSD   
  Vijay G. Chilkuri      : MRCI spin determinant printing, contributions to CSF-ICE 
  Pauline Colinet        : FMM embedding                                 
  Dipayan Datta          : RHF DLPNO-CCSD density                        
  Achintya Kumar Dutta   : EOM-CC, STEOM-CC                              
  Nicolas Foglia         : Exact transition moments, OPA infrastructure, MCD improvements    
  Dmitry Ganyushin       : Spin-Orbit,Spin-Spin,Magnetic field MRCI      
  Miquel Garcia-Rates    : C-PCM and meta-GGA Hessian, CCSD/C-PCM, Gaussian charge scheme 
  Tiago L. C. Gouveia    : GS-ROHF, GS-ROCIS                             
  Yang Guo               : DLPNO-NEVPT2, F12-NEVPT2, CIM, IAO-localization        
  Andreas Hansen         : Spin unrestricted coupled pair/coupled cluster methods 
  Ingolf Harden          : AUTO-CI MPn and infrastructure                
  Benjamin Helmich-Paris : MC-RPA, TRAH-(SCF,CASSCF), AVAS, COSX integrals, SCF dyn. polar. 
  Lee Huntington         : MR-EOM, pCC                                   
  Robert Izsak           : Overlap fitted RIJCOSX, COSX-SCS-MP3, EOM     
  Riya Kayal             : Wick's Theorem for AUTO-CI, AUTO-CI UHF-CCSDT 
  Emily Kempfer          : AUTO-CI, RHF CISDT and CCSDT                  
  Christian Kollmar      : KDIIS, OOCD, Brueckner-CCSD(T), CCSD density, CASPT2, CASPT2-K, improved NEVPT2 
  Axel Koslowski         : Symmetry handling                             
  Simone Kossmann        : meta-GGA functionals, TD-DFT gradient, OOMP2, (MP2 Hessian; deprecated post 5.0) 
  Lucas Lang             : DCDCAS                                        
  Marvin Lechner         : AUTO-CI (C++ implementation), FIC-MRCC        
  Spencer Leger          : CASSCF response                               
  Dagmar Lenk            : GEPOL surface, SMD, ORCA-2-JSON               
  Dimitrios Liakos       : Extrapolation schemes; Compound Job, initial MDCI parallelization 
  Dimitrios Manganas     : Further ROCIS development; embedding schemes. LFT, Crystal Embedding 
  Dimitrios Pantazis     : SARC Basis sets                               
  Anastasios Papadopoulos: AUTO-CI, single reference methods and gradients 
  Taras Petrenko         : pre 6.0 DFT Hessian and TD-DFT gradient, (ASA, deprecated), ECA, 1-Electron XAS/XES, NRVS 
  Peter Pinski           : DLPNO-MP2, DLPNO-MP2 Gradient                 
  Christoph Reimann      : Effective Core Potentials                     
  Marius Retegan         : Local ZFS, SOC                                
  Christoph Riplinger    : Optimizer, TS searches, QM/MM, DLPNO-CCSD(T), (RO)-DLPNO pert. Triples 
  Michael Roemelt        : Original ROCIS implementation                 
  Masaaki Saitow         : Open-shell DLPNO-CCSD energy and density      
  Barbara Sandhoefer     : DKH picture change effects                    
  Kantharuban Sivalingam : CASSCF convergence/infrastructure, NEVPT2 and variants, FIC-MRCI 
  Bernardo de Souza      : ESD, SOC TD-DFT                               
  Georgi L. Stoychev     : AutoAux, RI-MP2 NMR, DLPNO-MP2 response, X2C  
  Van Anh Tran           : RI-MP2 g-tensors                              
  Willem Van den Heuvel  : Paramagnetic NMR                              
  Zikuan Wang            : NOTCH, Electric field optimization            
  Frank Wennmohs         : Technical directorship and infrastructure     
  Hang Xu                : AUTO-CI-Response properties                   
                                                                         
[FACCTs GmbH]                                                            
  Markus Bursch, Miquel Garcia-Rates, Christoph Riplinger, Bernardo de Souza, Georgi L. Stoychev 
                                                                 
  APM, Basis sets (HGBS, AHGBS, def-TZVP (Ac-Lr), def2-XVPD (La-Lu)), CI-OPT, improved COSX, DLPNO-Multilevel,           
  DOCKER, DRACO, updates on ESD, GOAT, IRC, LR-CPCM, MBIS, meta-GGA TD-DFT gradient, ML-optimized integration grids, 
  MM, NACMEs, nearIR, NEB, NEB-TS, NL-DFT gradient (VV10), 2- and 3-layer-ONIOM, interface openCOSMO-RS, QMMM,   
  Crystal-QMMM, SF, symmetry and pop. for TD-DFT, r2SCAN hybrids, SOLVATOR                                   
                                                                         
[Other institutions]                                                     
  V. Asgeirsson          : NEB                                           
  Christoph Bannwarth    : sTDA-DFT, sTD-DFT, PBEh-3c, B97-3c, D3        
  Sebastian Ehlert       : rSCAN, r2SCAN, r2SCAN-3c, D4, dhf basis sets  
  Marvin Friede          : D4 for Fr, Ra, Ac-Lr                          
  Lars Goerigk           : TD-DFT with DH, B97 family of functionals     
  Stefan Grimme          : VdW corrections, initial TS optimization, DFT functionals, gCP, sTDA/sTD-DF 
  Waldemar Hujo          : DFT-NL                                        
  H. Jonsson             : NEB                                           
  Holger Kruse           : gCP                                           
  Marcel Mueller         : wB97X-3c, vDZP basis set                      
  Hagen Neugebauer       : wr2SCAN                                       
  Tobias Risthaus        : range-separated hybrid DFT                    
  Lukas Wittmann         : regularized MP2, r2SCAN double-hybrids, wr2SCAN        
                                                                         
We gratefully acknowledge several colleagues who have allowed us to      
interface, adapt or use parts of their codes:                            
  Ed Valeev, F. Pavosevic, A. Kumar             : LibInt (2-el integral package), F12 methods 
  Garnet Chan, S. Sharma, J. Yang, R. Olivares  : DMRG                   
  Ulf Ekstrom                                   : XCFun DFT Library      
  Mihaly Kallay                                 : mrcc  (arbitrary order and MRCC methods)
  Frank Weinhold                                : gennbo (NPA and NBO analysis)           
  Simon Mueller                                 : openCOSMO-RS                            
  Christopher J. Cramer and Donald G. Truhlar   : smd solvation model                     
  S Lehtola, MJT Oliveira, MAL Marques          : LibXC Library                           
  Liviu Ungur et al                             : ANISO software                          


 Your calculation uses the libint2 library for the computation of 2-el integrals
 For citations please refer to: http://libint.valeyev.net

 Your ORCA version has been built with support for libXC version: 6.2.2
 For citations please refer to: https://libxc.gitlab.io

 This ORCA versions uses:
   CBLAS   interface :  Fast vector & matrix operations
   LAPACKE interface :  Fast linear algebra routines
   SCALAPACK package :  Parallel linear algebra routines
   Shared memory     :  Shared parallel matrices
   BLAS/LAPACK       :  OpenBLAS 0.3.27  USE64BITINT DYNAMIC_ARCH NO_AFFINITY SkylakeX SINGLE_THREADED
        Core in use  :  SkylakeX
   Copyright (c) 2011-2014, The OpenBLAS Project


NOTE: MaxCore=8000 MB was set to SCF,MP2,MDCI,CIPSI,MRCI and CIS
      => If you want to overwrite this, your respective input block should be placed after the MaxCore statement
Your calculation utilizes the atom-pairwise dispersion correction
with the Becke-Johnson damping scheme (D3BJ)


Your calculation utilizes the SMD solvation module
Please cite in your paper:
A.V. Marenich, C.J. Cramer, D.G. Truhlar J. Phys. Chem. B, 113, (2009), 6378 

Warning: RI is on but no J-basis has been assigned. Assigning Def2/J (nothing to worry about!)
================================================================================

----- Orbital basis set information -----
Your calculation utilizes the basis: def2-TZVP
   F. Weigend and R. Ahlrichs, Phys. Chem. Chem. Phys. 7, 3297 (2005).

----- AuxJ basis set information -----
Your calculation utilizes the auxiliary basis: def2/J
   F. Weigend, Phys. Chem. Chem. Phys. 8, 1057 (2006).

================================================================================
                                        WARNINGS
                       Please study these warnings very carefully!
================================================================================


WARNING: your system is open-shell and RHF/RKS was chosen
  ===> : WILL SWITCH to UHF/UKS


================================================================================
                                       INPUT FILE
================================================================================
NAME = rf_mecn_freq_TP_C5_P_B.inp
|  1> !TPSSh def2-TZVP freq d3 TightSCF SlowConv defgrid2
|  2>  
|  3> %pal
|  4> nprocs 20
|  5> end
|  6>  
|  7> %scf
|  8> MaxIter 1500
|  9> end
| 10>  
| 11> %maxcore 8000
| 12>  
| 13> !CPCM
| 14> %cpcm smd true
| 15> SMDsolvent "ACETONITRILE"
| 16> end
| 17>  
| 18> * xyz 0 2
| 19> 6        4.484661000      0.335454000      0.248514000
| 20> 8        5.273086000     -0.373078000     -0.548897000
| 21> 8        4.683909000      1.438793000      0.678604000
| 22> 6        3.184700000     -0.445570000      0.583133000
| 23> 6        2.035827000     -0.081227000     -0.409878000
| 24> 6        0.782130000     -1.016288000     -0.349807000
| 25> 6       -0.410561000     -0.426256000     -1.035991000
| 26> 6       -1.858359000     -0.660195000     -0.701033000
| 27> 6       -2.488258000      0.503990000      0.127879000
| 28> 6       -3.996829000      0.369811000      0.494193000
| 29> 9        3.397314000     -1.782092000      0.544653000
| 30> 9        2.801213000     -0.110373000      1.834237000
| 31> 9        1.643232000      1.185791000     -0.141623000
| 32> 9        2.536838000     -0.115365000     -1.667829000
| 33> 9        1.127446000     -2.210280000     -0.921722000
| 34> 9        0.481906000     -1.262162000      0.948757000
| 35> 9       -0.182907000      0.241325000     -2.156596000
| 36> 9       -1.989268000     -1.809402000      0.004263000
| 37> 9       -2.558722000     -0.775470000     -1.858864000
| 38> 9       -2.338124000      1.645692000     -0.581931000
| 39> 9       -1.797657000      0.618599000      1.283908000
| 40> 9       -4.215444000     -0.724362000      1.229218000
| 41> 9       -4.360818000      1.442215000      1.208439000
| 42> 9       -4.755272000      0.314420000     -0.603228000
| 43> 1        6.072861000      0.154547000     -0.753914000
| 44> *
| 45> 
| 46>                          ****END OF INPUT****
================================================================================

                       ****************************
                       * Single Point Calculation *
                       ****************************

---------------------------------
CARTESIAN COORDINATES (ANGSTROEM)
---------------------------------
  C      4.484661    0.335454    0.248514
  O      5.273086   -0.373078   -0.548897
  O      4.683909    1.438793    0.678604
  C      3.184700   -0.445570    0.583133
  C      2.035827   -0.081227   -0.409878
  C      0.782130   -1.016288   -0.349807
  C     -0.410561   -0.426256   -1.035991
  C     -1.858359   -0.660195   -0.701033
  C     -2.488258    0.503990    0.127879
  C     -3.996829    0.369811    0.494193
  F      3.397314   -1.782092    0.544653
  F      2.801213   -0.110373    1.834237
  F      1.643232    1.185791   -0.141623
  F      2.536838   -0.115365   -1.667829
  F      1.127446   -2.210280   -0.921722
  F      0.481906   -1.262162    0.948757
  F     -0.182907    0.241325   -2.156596
  F     -1.989268   -1.809402    0.004263
  F     -2.558722   -0.775470   -1.858864
  F     -2.338124    1.645692   -0.581931
  F     -1.797657    0.618599    1.283908
  F     -4.215444   -0.724362    1.229218
  F     -4.360818    1.442215    1.208439
  F     -4.755272    0.314420   -0.603228
  H      6.072861    0.154547   -0.753914

----------------------------
CARTESIAN COORDINATES (A.U.)
----------------------------
  NO LB      ZA    FRAG     MASS         X           Y           Z
   0 C     6.0000    0    12.011    8.474781    0.633916    0.469623
   1 O     8.0000    0    15.999    9.964688   -0.705015   -1.037265
   2 O     8.0000    0    15.999    8.851305    2.718925    1.282376
   3 C     6.0000    0    12.011    6.018211   -0.842005    1.101962
   4 C     6.0000    0    12.011    3.847155   -0.153497   -0.774557
   5 C     6.0000    0    12.011    1.478012   -1.920506   -0.661039
   6 C     6.0000    0    12.011   -0.775848   -0.805507   -1.957739
   7 C     6.0000    0    12.011   -3.511790   -1.247588   -1.324760
   8 C     6.0000    0    12.011   -4.702126    0.952403    0.241656
   9 C     6.0000    0    12.011   -7.552912    0.698842    0.933889
  10 F     9.0000    0    18.998    6.419993   -3.367666    1.029245
  11 F     9.0000    0    18.998    5.293525   -0.208575    3.466206
  12 F     9.0000    0    18.998    3.105258    2.240820   -0.267629
  13 F     9.0000    0    18.998    4.793929   -0.218008   -3.151740
  14 F     9.0000    0    18.998    2.130564   -4.176824   -1.741802
  15 F     9.0000    0    18.998    0.910670   -2.385141    1.792891
  16 F     9.0000    0    18.998   -0.345644    0.456038   -4.075376
  17 F     9.0000    0    18.998   -3.759172   -3.419274    0.008056
  18 F     9.0000    0    18.998   -4.835284   -1.465426   -3.512744
  19 F     9.0000    0    18.998   -4.418414    3.109907   -1.099690
  20 F     9.0000    0    18.998   -3.397079    1.168983    2.426235
  21 F     9.0000    0    18.998   -7.966035   -1.368846    2.322885
  22 F     9.0000    0    18.998   -8.240752    2.725391    2.283619
  23 F     9.0000    0    18.998   -8.986162    0.594168   -1.139936
  24 H     1.0000    0     1.008   11.476044    0.292052   -1.424691

--------------------------------
INTERNAL COORDINATES (ANGSTROEM)
--------------------------------
 C      0   0   0     0.000000000000     0.00000000     0.00000000
 O      1   0   0     1.326459904622     0.00000000     0.00000000
 O      1   2   0     1.200847251954   127.40648174     0.00000000
 C      1   2   3     1.553018662238   111.00375571   179.36506768
 C      4   1   2     1.561642032573   111.19026479   266.70186513
 C      5   4   1     1.565152953091   115.18215435   168.02246510
 C      6   5   4     1.497163339239   112.64826943   164.70813261
 C      7   6   5     1.504341505872   127.11050020   209.58646684
 C      8   7   6     1.561792101456   112.98035425   100.69529555
 C      9   8   7     1.558196525692   116.81145165   178.53918312
 F      4   1   2     1.353874617489   111.03175876    28.41725350
 F      4   1   2     1.350807361097   108.20400062   147.27878552
 F      5   4   1     1.353301958683   107.80690504   289.46686852
 F      5   4   1     1.354480765299   108.21334522    46.46659903
 F      6   5   4     1.368191069677   107.64701673   287.02333747
 F      6   5   4     1.355306952741   108.81977308    43.05751395
 F      7   6   5     1.324102073596   116.71895414    38.56652301
 F      8   7   6     1.354716332944   109.92811159   339.35919755
 F      8   7   6     1.358075580354   108.64409016   220.42378948
 F      9   8   7     1.352720928669   107.81082717    57.23845929
 F      9   8   7     1.351468835350   108.12612209   299.88712175
 F     10   9   8     1.336139522198   110.99264976    60.20390127
 F     10   9   8     1.338912125516   108.64075780   179.46992965
 F     10   9   8     1.335154222692   111.11911884   298.76027687
 H      2   1   3     0.979826597689   108.86321764   359.50694221

---------------------------
INTERNAL COORDINATES (A.U.)
---------------------------
 C      0   0   0     0.000000000000     0.00000000     0.00000000
 O      1   0   0     2.506645947363     0.00000000     0.00000000
 O      1   2   0     2.269272434865   127.40648174     0.00000000
 C      1   2   3     2.934779952498   111.00375571   179.36506768
 C      4   1   2     2.951075760783   111.19026479   266.70186513
 C      5   4   1     2.957710439041   115.18215435   168.02246510
 C      6   5   4     2.829228688909   112.64826943   164.70813261
 C      7   6   5     2.842793457989   127.11050020   209.58646684
 C      8   7   6     2.951359349873   112.98035425   100.69529555
 C      9   8   7     2.944564696385   116.81145165   178.53918312
 F      4   1   2     2.558452246721   111.03175876    28.41725350
 F      4   1   2     2.552655972158   108.20400062   147.27878552
 F      5   4   1     2.557370078409   107.80690504   289.46686852
 F      5   4   1     2.559597700080   108.21334522    46.46659903
 F      6   5   4     2.585506420567   107.64701673   287.02333747
 F      6   5   4     2.561158968080   108.81977308    43.05751395
 F      7   6   5     2.502190292454   116.71895414    38.56652301
 F      8   7   6     2.560042858415   109.92811159   339.35919755
 F      8   7   6     2.566390916036   108.64409016   220.42378948
 F      9   8   7     2.556272090809   107.81082717    57.23845929
 F      9   8   7     2.553905977342   108.12612209   299.88712175
 F     10   9   8     2.524937773662   110.99264976    60.20390127
 F     10   9   8     2.530177234611   108.64075780   179.46992965
 F     10   9   8     2.523075827435   111.11911884   298.76027687
 H      2   1   3     1.851603928364   108.86321764   359.50694221

---------------------
BASIS SET INFORMATION
---------------------
There are 4 groups of distinct atoms

 Group   1 Type C   : 11s6p2d1f contracted to 5s3p2d1f pattern {62111/411/11/1}
 Group   2 Type O   : 11s6p2d1f contracted to 5s3p2d1f pattern {62111/411/11/1}
 Group   3 Type F   : 11s6p2d1f contracted to 5s3p2d1f pattern {62111/411/11/1}
 Group   4 Type H   : 5s1p contracted to 3s1p pattern {311/1}

Atom   0C    basis set group =>   1
Atom   1O    basis set group =>   2
Atom   2O    basis set group =>   2
Atom   3C    basis set group =>   1
Atom   4C    basis set group =>   1
Atom   5C    basis set group =>   1
Atom   6C    basis set group =>   1
Atom   7C    basis set group =>   1
Atom   8C    basis set group =>   1
Atom   9C    basis set group =>   1
Atom  10F    basis set group =>   3
Atom  11F    basis set group =>   3
Atom  12F    basis set group =>   3
Atom  13F    basis set group =>   3
Atom  14F    basis set group =>   3
Atom  15F    basis set group =>   3
Atom  16F    basis set group =>   3
Atom  17F    basis set group =>   3
Atom  18F    basis set group =>   3
Atom  19F    basis set group =>   3
Atom  20F    basis set group =>   3
Atom  21F    basis set group =>   3
Atom  22F    basis set group =>   3
Atom  23F    basis set group =>   3
Atom  24H    basis set group =>   4
---------------------------------
AUXILIARY/J BASIS SET INFORMATION
---------------------------------
There are 4 groups of distinct atoms

 Group   1 Type C   : 12s5p4d2f1g contracted to 6s4p3d1f1g pattern {711111/2111/211/2/1}
 Group   2 Type O   : 12s5p4d2f1g contracted to 6s4p3d1f1g pattern {711111/2111/211/2/1}
 Group   3 Type F   : 12s5p4d2f1g contracted to 6s4p3d1f1g pattern {711111/2111/211/2/1}
 Group   4 Type H   : 5s2p1d contracted to 3s1p1d pattern {311/2/1}

Atom   0C    basis set group =>   1
Atom   1O    basis set group =>   2
Atom   2O    basis set group =>   2
Atom   3C    basis set group =>   1
Atom   4C    basis set group =>   1
Atom   5C    basis set group =>   1
Atom   6C    basis set group =>   1
Atom   7C    basis set group =>   1
Atom   8C    basis set group =>   1
Atom   9C    basis set group =>   1
Atom  10F    basis set group =>   3
Atom  11F    basis set group =>   3
Atom  12F    basis set group =>   3
Atom  13F    basis set group =>   3
Atom  14F    basis set group =>   3
Atom  15F    basis set group =>   3
Atom  16F    basis set group =>   3
Atom  17F    basis set group =>   3
Atom  18F    basis set group =>   3
Atom  19F    basis set group =>   3
Atom  20F    basis set group =>   3
Atom  21F    basis set group =>   3
Atom  22F    basis set group =>   3
Atom  23F    basis set group =>   3
Atom  24H    basis set group =>   4


           ************************************************************
           *        Program running with 20 parallel MPI-processes    *
           *              working on a common directory               *
           ************************************************************
------------------------------------------------------------------------------
                             ORCA STARTUP CALCULATIONS
                           -- RI-GTO INTEGRALS CHOSEN --
------------------------------------------------------------------------------
------------------------------------------------------------------------------
                   ___                                                        
                  /   \      - P O W E R E D   B Y -                         
                 /     \                                                     
                 |  |  |   _    _      __       _____    __    __             
                 |  |  |  | |  | |    /  \     |  _  \  |  |  /  |          
                  \  \/   | |  | |   /    \    | | | |  |  | /  /          
                 / \  \   | |__| |  /  /\  \   | |_| |  |  |/  /          
                |  |  |   |  __  | /  /__\  \  |    /   |      \           
                |  |  |   | |  | | |   __   |  |    \   |  |\   \          
                \     /   | |  | | |  |  |  |  | |\  \  |  | \   \       
                 \___/    |_|  |_| |__|  |__|  |_| \__\ |__|  \__/        
                                                                              
                      - O R C A' S   B I G   F R I E N D -                    
                                      &                                       
                       - I N T E G R A L  F E E D E R -                       
                                                                              
 v1 FN, 2020, v2 2021, v3 2022-2024                                           
------------------------------------------------------------------------------


----------------------
SHARK INTEGRAL PACKAGE
----------------------

Number of atoms                             ...     25
Number of basis functions                   ...    750
Number of shells                            ...    268
Maximum angular momentum                    ...      3
Integral batch strategy                     ... SHARK/LIBINT Hybrid
RI-J (if used) integral strategy            ... SPLIT-RIJ (Revised 2003 algorithm where possible)
Printlevel                                  ...      1
Contraction scheme used                     ... SEGMENTED contraction
Prescreening option                         ... SCHWARTZ
   Thresh                                   ... 2.500e-11
   Tcut                                     ... 2.500e-12
   Tpresel                                  ... 2.500e-12 
Coulomb Range Separation                    ... NOT USED
Exchange Range Separation                   ... NOT USED
Multipole approximations                    ... NOT USED
Finite Nucleus Model                        ... NOT USED
CABS basis                                  ... NOT available
Auxiliary Coulomb fitting basis             ... AVAILABLE
   # of basis functions in Aux-J            ...   1187
   # of shells in Aux-J                     ...    365
   Maximum angular momentum in Aux-J        ...      4
Auxiliary J/K fitting basis                 ... NOT available
Auxiliary Correlation fitting basis         ... NOT available
Auxiliary 'external' fitting basis          ... NOT available

Checking pre-screening integrals            ... done (  0.0 sec) Dimension = 268
Check shell pair data                       ... done (  0.0 sec)
Shell pair information
Shell pair cut-off parameter TPreSel        ...   2.5e-12
Total number of shell pairs                 ...     36046
Shell pairs after pre-screening             ...     22485
Total number of primitive shell pairs       ...    118872
Primitive shell pairs kept                  ...     47586
          la=0 lb=0:   4279 shell pairs
          la=1 lb=0:   6138 shell pairs
          la=1 lb=1:   2119 shell pairs
          la=2 lb=0:   3344 shell pairs
          la=2 lb=1:   2437 shell pairs
          la=2 lb=2:    685 shell pairs
          la=3 lb=0:   1523 shell pairs
          la=3 lb=1:   1179 shell pairs
          la=3 lb=2:    627 shell pairs
          la=3 lb=3:    154 shell pairs

Calculating one electron integrals          ... done (  0.0 sec)
Calculating RI/J V-Matrix + Cholesky decomp.... done (  0.1 sec)
Calculating Nuclear repulsion               ... done (  0.0 sec) ENN=   2652.744865627162 Eh

Diagonalization of the overlap matrix:
Smallest eigenvalue                        ... 5.449e-05
Time for diagonalization                   ...    0.130 sec
Threshold for overlap eigenvalues          ... 1.000e-07
Number of eigenvalues below threshold      ... 0
Time for construction of square roots      ...    0.059 sec
Total time needed                          ...    0.194 sec

-------------------
DFT GRID GENERATION
-------------------

General Integration Accuracy     IntAcc      ... 4.388
Radial Grid Type                 RadialGrid  ... OptM3 with GC (2021)
Angular Grid (max. ang.)         AngularGrid ... 4 (Lebedev-302)
Angular grid pruning method      GridPruning ... 4 (adaptive)
Weight generation scheme         WeightScheme... mBecke (2022)
Basis function cutoff            BFCut       ... 1.0000e-11
Integration weight cutoff        WCut        ... 1.0000e-14
Partially contracted basis set               ... off
Rotationally invariant grid construction     ... off
Angular grids for H and He will be reduced by one unit

Total number of grid points                  ...   148706
Total number of batches                      ...     2339
Average number of points per batch           ...       63
Average number of grid points per atom       ...     5948

--------------------
COSX GRID GENERATION
--------------------

GRIDX 1
-------
General Integration Accuracy     IntAcc      ... 3.816
Radial Grid Type                 RadialGrid  ... OptM3 with GC (2021)
Angular Grid (max. ang.)         AngularGrid ... 1 (Lebedev-50)
Angular grid pruning method      GridPruning ... 4 (adaptive)
Weight generation scheme         WeightScheme... mBecke (2022)
Basis function cutoff            BFCut       ... 1.0000e-11
Integration weight cutoff        WCut        ... 1.0000e-14
Partially contracted basis set               ... on
Rotationally invariant grid construction     ... off
Angular grids for H and He will be reduced by one unit

Total number of grid points                  ...    18697
Total number of batches                      ...      157
Average number of points per batch           ...      119
Average number of grid points per atom       ...      748
UseSFitting                                  ... on

GRIDX 2
-------
General Integration Accuracy     IntAcc      ... 4.020
Radial Grid Type                 RadialGrid  ... OptM3 with GC (2021)
Angular Grid (max. ang.)         AngularGrid ... 2 (Lebedev-110)
Angular grid pruning method      GridPruning ... 4 (adaptive)
Weight generation scheme         WeightScheme... mBecke (2022)
Basis function cutoff            BFCut       ... 1.0000e-11
Integration weight cutoff        WCut        ... 1.0000e-14
Partially contracted basis set               ... on
Rotationally invariant grid construction     ... off
Angular grids for H and He will be reduced by one unit

Total number of grid points                  ...    44061
Total number of batches                      ...      357
Average number of points per batch           ...      123
Average number of grid points per atom       ...     1762
UseSFitting                                  ... on

GRIDX 3
-------
General Integration Accuracy     IntAcc      ... 4.338
Radial Grid Type                 RadialGrid  ... OptM3 with GC (2021)
Angular Grid (max. ang.)         AngularGrid ... 3 (Lebedev-194)
Angular grid pruning method      GridPruning ... 4 (adaptive)
Weight generation scheme         WeightScheme... mBecke (2022)
Basis function cutoff            BFCut       ... 1.0000e-11
Integration weight cutoff        WCut        ... 1.0000e-14
Partially contracted basis set               ... on
Rotationally invariant grid construction     ... off
Angular grids for H and He will be reduced by one unit

Total number of grid points                  ...    97563
Total number of batches                      ...      774
Average number of points per batch           ...      126
Average number of grid points per atom       ...     3903
UseSFitting                                  ... on
Initializing property integral containers    ... done (  0.0 sec)

SHARK setup successfully completed in   3.8 seconds

Maximum memory used throughout the entire STARTUP-calculation: 57.5 MB


           ************************************************************
           *        Program running with 20 parallel MPI-processes    *
           *              working on a common directory               *
           ************************************************************
-------------------------------------------------------------------------------
                                 ORCA GUESS
                   Start orbitals & Density for SCF / CASSCF
-------------------------------------------------------------------------------

------------
SCF SETTINGS
------------
Hamiltonian:
 Density Functional     Method          .... DFT(GTOs)
 Exchange Functional    Exchange        .... TPSS
 Correlation Functional Correlation     .... TPSS
 LDA part of GGA corr.  LDAOpt          .... PW91-LDA
 Gradients option       PostSCFGGA      .... off
 Hybrid DFT is turned on
   Fraction HF Exchange ScalHFX         ....  0.100000
   Scaling of DF-GGA-X  ScalDFX         ....  0.900000
   Scaling of DF-GGA-C  ScalDFC         ....  1.000000
   Scaling of DF-LDA-C  ScalLDAC        ....  1.000000
   Perturbative correction              ....  0.000000
   NL short-range parameter             ....  5.200000
 RI-approximation to the Coulomb term is turned on
   Number of AuxJ basis functions       .... 1187
   RIJ-COSX (HFX calculated with COS-X)).... on


General Settings:
 Integral files         IntName         .... rf_mecn_freq_TP_C5_P_B
 Hartree-Fock type      HFTyp           .... UHF
 Total Charge           Charge          ....    0
 Multiplicity           Mult            ....    2
 Number of Electrons    NEL             ....  191
 Basis Dimension        Dim             ....  750
 Nuclear Repulsion      ENuc            ....   2652.7448656272 Eh

Convergence Acceleration:
 AO-DIIS                CNVDIIS         .... on
   Start iteration      DIISMaxIt       ....     0
   Startup error        DIISStart       ....  0.200000
   # of expansion vecs  DIISMaxEq       ....     5
   Bias factor          DIISBfac        ....   1.050
   Max. coefficient     DIISMaxC        ....  10.000
 MO-DIIS                CNVKDIIS        .... off
 Trust-Rad. Augm. Hess. CNVTRAH         .... auto
   Auto Start mean grad. ratio tolernc. ....  1.125000
   Auto Start start iteration           ....    50
   Auto Start num. interpolation iter.  ....    10
   Max. Number of Micro iterations      ....    24
   Max. Number of Macro iterations      .... Maxiter - #DIIS iter
   Number of Davidson start vectors     ....     2
   Converg. threshold    (grad. norm)   ....   1.000e-05
   Grad. Scal. Fac. for Micro threshold ....   0.100
   Minimum threshold for Micro iter.    ....   1.000e-02
   NR start threshold (gradient norm)   ....   1.000e-04
   Initial trust radius                 ....   0.400
   Minimum AH scaling param. (alpha)    ....   1.000
   Maximum AH scaling param. (alpha)    .... 1000.000
   Quad. conv. algorithm                .... NR
   White noise on init. David. guess    .... on
   Maximum white noise                  ....   0.010
   Pseudo random numbers                .... off
   Inactive MOs                         .... canonical
   Orbital update algorithm             .... Taylor
   Preconditioner                       .... Diag
   Full preconditioner red. dimension   ....   250
 SOSCF                  CNVSOSCF        .... on
   Start iteration      SOSCFMaxIt      ....   150
   Startup grad/error   SOSCFStart      ....  0.001000
   Hessian update       SOSCFHessUp     .... L-BFGS
 Level Shifting         CNVShift        .... on
   Level shift para.    LevelShift      ....    0.2500
   Turn off err/grad.   ShiftErr        ....    0.0000
 Zerner damping         CNVZerner       .... off
 Static damping         CNVDamp         .... on
   Fraction old density DampFac         ....    0.8500
   Max. Damping (<1)    DampMax         ....    0.9800
   Min. Damping (>=0)   DampMin         ....    0.0000
   Turn off err/grad.   DampErr         ....    0.0300

SCF Procedure:
 Maximum # iterations   MaxIter         ....  1500
 SCF integral mode      SCFMode         .... Direct
   Integral package                     .... SHARK and LIBINT hybrid scheme
 Reset frequency        DirectResetFreq ....    20
 Integral Threshold     Thresh          ....  2.500e-11 Eh
 Primitive CutOff       TCut            ....  2.500e-12 Eh

Convergence Tolerance:
 Convergence Check Mode ConvCheckMode   .... Total+1el-Energy
 Convergence forced     ConvForced      .... 0
 Energy Change          TolE            ....  1.000e-08 Eh
 1-El. energy change                    ....  1.000e-05 Eh
 Orbital Gradient       TolG            ....  1.000e-05
 Orbital Rotation angle TolX            ....  1.000e-05
 DIIS Error             TolErr          ....  5.000e-07

------------------------------
INITIAL GUESS: MODEL POTENTIAL
------------------------------
Loading Hartree-Fock densities                     ... done
Calculating cut-offs                               ... done
Initializing the effective Hamiltonian             ... done
Setting up the integral package (SHARK)            ... done
Starting the Coulomb interaction                   ... done (   0.2 sec)
Making the grid                                    ... done (   0.4 sec)
Mapping shells                                     ... done
Starting the XC term evaluation                    ... done (   0.2 sec)
  promolecular density results
     # of electrons  =    190.997772736
     EX              =   -197.550078768
     EC              =     -6.706567890
     EX+EC           =   -204.256646658
Transforming the Hamiltonian                       ... done (   0.0 sec)
Diagonalizing the Hamiltonian                      ... done (   0.1 sec)
Back transforming the eigenvectors                 ... done (   0.0 sec)
Now organizing SCF variables                       ... done
                      ------------------
                      INITIAL GUESS DONE (   1.2 sec)
                      ------------------
             **** ENERGY FILE WAS UPDATED (rf_mecn_freq_TP_C5_P_B.en.tmp) ****
Finished Guess after   2.0 sec
Maximum memory used throughout the entire GUESS-calculation: 46.8 MB


           ************************************************************
           *        Program running with 20 parallel MPI-processes    *
           *              working on a common directory               *
           ************************************************************

-------------------------------------------------------------------------------------------
                                      ORCA LEAN-SCF
                              memory conserving SCF solver
-------------------------------------------------------------------------------------------

--------------------
CPCM SOLVATION MODEL
--------------------
CPCM parameters:
  Epsilon                                         ...      35.6880
  Refrac                                          ...       1.3442
  Rsolv                                           ...       1.3000
  Surface type                                    ... GAUSSIAN VDW
  Discretization scheme                           ... Constant charge density
    Threshold for H atoms                         ...       5.0000 (charges/Ang^2)
    Threshold for non-H atoms                     ...       5.0000 (charges/Ang^2)
  Epsilon function type                           ...         CPCM
Solvent:                                          ... ACETONITRILE
SMD-CDS solvent descriptors:
  Soln                                            ...       1.3442
  Soln25                                          ...       1.3416
  Sola                                            ...       0.0700
  Solb                                            ...       0.3200
  Solg                                            ...      41.2500
  Solc                                            ...       0.0000
  Solh                                            ...       0.0000
Radii:
  Scheme                                          ... Element-dependent radii
  Radius for C  used is    3.4960 Bohr (=   1.8500 Ang.)
  Radius for O  used is    4.0969 Bohr (=   2.1680 Ang.)
  Radius for F  used is    3.2692 Bohr (=   1.7300 Ang.)
  Radius for H  used is    2.2677 Bohr (=   1.2000 Ang.)
Calculating surface                               ...        done! (  0.0s)
Cavity surface points                             ...         2191
Cavity Volume                                     ...    2115.2174
Cavity Surface-area                               ...    1117.6242
Calculating surface distance matrix               ...        done! (  0.0s)
Performing Cholesky decomposition & store         ...        done! (  0.1s)
Overall time for CPCM initialization              ...                 0.2s

----------------------------------------D-I-I-S--------------------------------------------
Iteration    Energy (Eh)           Delta-E    RMSDP     MaxDP     DIISErr   Damp  Time(sec)
-------------------------------------------------------------------------------------------
               ***  Starting incremental Fock matrix formation  ***
    1    -1854.0159748765345284     0.00e+00  1.78e-04  1.35e-02  1.36e-01  0.850   8.1
Warning: op=1 Small HOMO/LUMO gap (   0.040) - skipping pre-diagonalization
         Will do a full diagonalization
    2    -1854.1322293774628633    -1.16e-01  1.66e-04  1.21e-02  9.00e-02  0.850   5.6
                               ***Turning on AO-DIIS***
    3    -1854.1931697807212913    -6.09e-02  7.64e-05  4.25e-03  5.05e-02  0.850   4.7
    4    -1854.2295567331339043    -3.64e-02  5.03e-05  2.96e-03  3.83e-02  0.850   4.5
    5    -1854.2554322937439792    -2.59e-02  4.16e-05  3.10e-03  3.30e-02  0.850   4.2
    6    -1854.2760478599229828    -2.06e-02  3.72e-05  2.93e-03  2.90e-02  0.850   4.1
    7    -1854.2933325765789050    -1.73e-02  2.28e-04  1.77e-02  2.48e-02  0.000   4.7
    8    -1854.3846784124389160    -9.13e-02  2.94e-05  3.55e-03  5.67e-03  0.000   5.1
    9    -1854.3847305447743565    -5.21e-05  1.24e-05  1.35e-03  5.32e-03  0.000   4.2
                              *** Initializing SOSCF ***
---------------------------------------S-O-S-C-F--------------------------------------
Iteration    Energy (Eh)           Delta-E    RMSDP     MaxDP     MaxGrad    Time(sec)
--------------------------------------------------------------------------------------
   10    -1854.3849903920881843    -2.60e-04  5.64e-06  5.73e-04  9.06e-04     4.4
               *** Restarting incremental Fock matrix formation ***
   11    -1854.3850031524871156    -1.28e-05  4.52e-06  4.23e-04  3.61e-04     7.4
   12    -1854.3850005431077079     2.61e-06  2.49e-06  2.79e-04  7.56e-04     5.0
   13    -1854.3850059586711723    -5.42e-06  8.91e-07  7.56e-05  1.87e-05     4.7
   14    -1854.3850059715450698    -1.29e-08  3.99e-07  2.69e-05  2.23e-05     4.3
   15    -1854.3850060202930763    -4.87e-08  2.08e-07  2.81e-05  6.40e-06     3.7
   16    -1854.3850060114009466     8.89e-09  1.04e-07  1.01e-05  8.96e-06     3.8
                 **** Energy Check signals convergence ****

               *****************************************************
               *                     SUCCESS                       *
               *           SCF CONVERGED AFTER  16 CYCLES          *
               *****************************************************

Recomputing exchange energy using gridx3       ... done (    8.579 sec)
Old exchange energy                            :    -19.916469452 Eh
New exchange energy                            :    -19.916474352 Eh
Exchange energy change after final integration :     -0.000004900 Eh
Total energy after final integration           :  -1854.385010912 Eh

SMD CDS free energy correction energy :                 3.32878     Kcal/mol
Total Energy after SMD CDS correction =             -1854.379706159 Eh
             **** ENERGY FILE WAS UPDATED (rf_mecn_freq_TP_C5_P_B.en.tmp) ****

----------------
TOTAL SCF ENERGY
----------------

Total Energy       :      -1854.37970615858080 Eh          -50460.23715 eV

Components:
Nuclear Repulsion  :       2652.74486562716174 Eh           72184.85760 eV
Electronic Energy  :      -4507.11666112865987 Eh         -122644.87949 eV
One Electron Energy:      -7856.65050814274946 Eh         -213790.32922 eV
Two Electron Energy:       3349.53384701408959 Eh           91145.44972 eV
CPCM Dielectric    :         -0.01321050990317 Eh              -0.35948 eV
SMD CDS (Gcds)     :          0.00530475313547 Eh               0.14435 eV

Virial components:
Potential Energy   :      -3702.45358462460990 Eh         -100748.88401 eV
Kinetic Energy     :       1848.07387846602887 Eh           50288.64686 eV
Virial Ratio       :          2.00341210801474

DFT components:
N(Alpha)           :       95.999974611521 electrons
N(Beta)            :       94.999966074364 electrons
N(Total)           :      190.999940685885 electrons
E(X)               :     -180.981698424529 Eh       
E(C)               :       -6.718456857195 Eh       
E(XC)              :     -187.700155281724 Eh       

CPCM Solvation Model Properties:
Surface-charge          :         -0.00860940431078
Corrected charge        :         -0.00000000000000
Outlying charge corr.   :          0.00000408592824 Eh               0.00011 eV
Free-energy (cav+disp)  :          0.00530475313547 Eh               0.14435 eV

---------------
SCF CONVERGENCE
---------------

  Last Energy change         ...   -8.8921e-09  Tolerance :   1.0000e-08
  Last MAX-Density change    ...    1.0126e-05  Tolerance :   1.0000e-07
  Last RMS-Density change    ...    1.0418e-07  Tolerance :   5.0000e-09
  Last DIIS Error            ...    9.0628e-04  Tolerance :   5.0000e-07
  Last Orbital Gradient      ...    8.9621e-06  Tolerance :   1.0000e-05
  Last Orbital Rotation      ...    8.9553e-06  Tolerance :   1.0000e-05


----------------------
UHF SPIN CONTAMINATION
----------------------

Warning: in a DFT calculation there is little theoretical justification to 
         calculate <S**2> as in Hartree-Fock theory. We will do it anyways
         but you should keep in mind that the values have only limited relevance

Expectation value of <S**2>     :     0.755512
Ideal value S*(S+1) for S=0.5   :     0.750000
Deviation                       :     0.005512

----------------
ORBITAL ENERGIES
----------------
                 SPIN UP ORBITALS
  NO   OCC          E(Eh)            E(eV) 
   0   1.0000     -24.675825      -671.4633 
   1   1.0000     -24.660232      -671.0390 
   2   1.0000     -24.660142      -671.0366 
   3   1.0000     -24.659119      -671.0087 
   4   1.0000     -24.659100      -671.0082 
   5   1.0000     -24.658844      -671.0012 
   6   1.0000     -24.657868      -670.9747 
   7   1.0000     -24.657695      -670.9700 
   8   1.0000     -24.656425      -670.9354 
   9   1.0000     -24.656001      -670.9239 
  10   1.0000     -24.654410      -670.8806 
  11   1.0000     -24.649881      -670.7574 
  12   1.0000     -24.648421      -670.7176 
  13   1.0000     -24.647970      -670.7054 
  14   1.0000     -19.133070      -520.6373 
  15   1.0000     -19.079572      -519.1816 
  16   1.0000     -10.395439      -282.8743 
  17   1.0000     -10.345224      -281.5079 
  18   1.0000     -10.342998      -281.4473 
  19   1.0000     -10.340185      -281.3707 
  20   1.0000     -10.338673      -281.3296 
  21   1.0000     -10.331887      -281.1449 
  22   1.0000     -10.280498      -279.7466 
  23   1.0000     -10.269502      -279.4473 
  24   1.0000      -1.321321       -35.9550 
  25   1.0000      -1.294277       -35.2191 
  26   1.0000      -1.288427       -35.0599 
  27   1.0000      -1.276266       -34.7290 
  28   1.0000      -1.271395       -34.5964 
  29   1.0000      -1.270020       -34.5590 
  30   1.0000      -1.265896       -34.4468 
  31   1.0000      -1.235964       -33.6323 
  32   1.0000      -1.230329       -33.4789 
  33   1.0000      -1.228607       -33.4321 
  34   1.0000      -1.225593       -33.3501 
  35   1.0000      -1.218882       -33.1675 
  36   1.0000      -1.214791       -33.0561 
  37   1.0000      -1.213908       -33.0321 
  38   1.0000      -1.118944       -30.4480 
  39   1.0000      -1.035039       -28.1648 
  40   1.0000      -0.838266       -22.8104 
  41   1.0000      -0.810814       -22.0634 
  42   1.0000      -0.789929       -21.4950 
  43   1.0000      -0.754775       -20.5385 
  44   1.0000      -0.709955       -19.3189 
  45   1.0000      -0.677427       -18.4337 
  46   1.0000      -0.649150       -17.6643 
  47   1.0000      -0.641103       -17.4453 
  48   1.0000      -0.620009       -16.8713 
  49   1.0000      -0.615911       -16.7598 
  50   1.0000      -0.610645       -16.6165 
  51   1.0000      -0.605460       -16.4754 
  52   1.0000      -0.601815       -16.3762 
  53   1.0000      -0.593772       -16.1574 
  54   1.0000      -0.586585       -15.9618 
  55   1.0000      -0.582722       -15.8567 
  56   1.0000      -0.578331       -15.7372 
  57   1.0000      -0.571128       -15.5412 
  58   1.0000      -0.562852       -15.3160 
  59   1.0000      -0.560692       -15.2572 
  60   1.0000      -0.552122       -15.0240 
  61   1.0000      -0.544469       -14.8158 
  62   1.0000      -0.510178       -13.8826 
  63   1.0000      -0.497405       -13.5351 
  64   1.0000      -0.481985       -13.1155 
  65   1.0000      -0.477301       -12.9880 
  66   1.0000      -0.475844       -12.9484 
  67   1.0000      -0.474568       -12.9137 
  68   1.0000      -0.473604       -12.8874 
  69   1.0000      -0.465362       -12.6631 
  70   1.0000      -0.462217       -12.5776 
  71   1.0000      -0.460135       -12.5209 
  72   1.0000      -0.455747       -12.4015 
  73   1.0000      -0.453021       -12.3273 
  74   1.0000      -0.449825       -12.2404 
  75   1.0000      -0.448771       -12.2117 
  76   1.0000      -0.445319       -12.1177 
  77   1.0000      -0.438733       -11.9385 
  78   1.0000      -0.434761       -11.8304 
  79   1.0000      -0.432638       -11.7727 
  80   1.0000      -0.430146       -11.7049 
  81   1.0000      -0.428719       -11.6660 
  82   1.0000      -0.423178       -11.5153 
  83   1.0000      -0.419149       -11.4056 
  84   1.0000      -0.417387       -11.3577 
  85   1.0000      -0.415095       -11.2953 
  86   1.0000      -0.412891       -11.2353 
  87   1.0000      -0.411839       -11.2067 
  88   1.0000      -0.410601       -11.1730 
  89   1.0000      -0.403958       -10.9923 
  90   1.0000      -0.389487       -10.5985 
  91   1.0000      -0.358670        -9.7599 
  92   1.0000      -0.341180        -9.2840 
  93   1.0000      -0.338409        -9.2086 
  94   1.0000      -0.296051        -8.0559 
  95   1.0000      -0.261638        -7.1195 
  96   0.0000      -0.065025        -1.7694 
  97   0.0000      -0.012928        -0.3518 
  98   0.0000       0.010105         0.2750 
  99   0.0000       0.024496         0.6666 
 100   0.0000       0.034548         0.9401 
 101   0.0000       0.041290         1.1236 
 102   0.0000       0.065367         1.7787 
 103   0.0000       0.086566         2.3556 
 104   0.0000       0.090814         2.4712 
 105   0.0000       0.107056         2.9132 
 106   0.0000       0.112678         3.0661 

                 SPIN DOWN ORBITALS
  NO   OCC          E(Eh)            E(eV) 
   0   1.0000     -24.671367      -671.3420 
   1   1.0000     -24.660234      -671.0391 
   2   1.0000     -24.660143      -671.0366 
   3   1.0000     -24.659104      -671.0083 
   4   1.0000     -24.659078      -671.0076 
   5   1.0000     -24.658736      -670.9983 
   6   1.0000     -24.657808      -670.9731 
   7   1.0000     -24.657610      -670.9677 
   8   1.0000     -24.656013      -670.9242 
   9   1.0000     -24.655740      -670.9168 
  10   1.0000     -24.653825      -670.8647 
  11   1.0000     -24.649880      -670.7573 
  12   1.0000     -24.648418      -670.7176 
  13   1.0000     -24.646356      -670.6615 
  14   1.0000     -19.133069      -520.6373 
  15   1.0000     -19.079563      -519.1813 
  16   1.0000     -10.395310      -282.8708 
  17   1.0000     -10.346169      -281.5336 
  18   1.0000     -10.343794      -281.4689 
  19   1.0000     -10.339543      -281.3533 
  20   1.0000     -10.338464      -281.3239 
  21   1.0000     -10.331876      -281.1447 
  22   1.0000     -10.280492      -279.7464 
  23   1.0000     -10.253725      -279.0180 
  24   1.0000      -1.321200       -35.9517 
  25   1.0000      -1.293146       -35.1883 
  26   1.0000      -1.287637       -35.0384 
  27   1.0000      -1.274642       -34.6848 
  28   1.0000      -1.270654       -34.5763 
  29   1.0000      -1.269367       -34.5412 
  30   1.0000      -1.259327       -34.2680 
  31   1.0000      -1.235834       -33.6287 
  32   1.0000      -1.230180       -33.4749 
  33   1.0000      -1.228192       -33.4208 
  34   1.0000      -1.225236       -33.3404 
  35   1.0000      -1.218029       -33.1443 
  36   1.0000      -1.214070       -33.0365 
  37   1.0000      -1.212526       -32.9945 
  38   1.0000      -1.118937       -30.4478 
  39   1.0000      -1.035026       -28.1645 
  40   1.0000      -0.826188       -22.4817 
  41   1.0000      -0.809978       -22.0406 
  42   1.0000      -0.783457       -21.3190 
  43   1.0000      -0.753115       -20.4933 
  44   1.0000      -0.705647       -19.2016 
  45   1.0000      -0.675973       -18.3942 
  46   1.0000      -0.644414       -17.5354 
  47   1.0000      -0.640744       -17.4355 
  48   1.0000      -0.617732       -16.8094 
  49   1.0000      -0.613818       -16.7028 
  50   1.0000      -0.609790       -16.5932 
  51   1.0000      -0.604474       -16.4486 
  52   1.0000      -0.600839       -16.3497 
  53   1.0000      -0.591661       -16.0999 
  54   1.0000      -0.585366       -15.9286 
  55   1.0000      -0.581117       -15.8130 
  56   1.0000      -0.576433       -15.6855 
  57   1.0000      -0.569875       -15.5071 
  58   1.0000      -0.561686       -15.2843 
  59   1.0000      -0.558141       -15.1878 
  60   1.0000      -0.550560       -14.9815 
  61   1.0000      -0.544046       -14.8042 
  62   1.0000      -0.497414       -13.5353 
  63   1.0000      -0.486304       -13.2330 
  64   1.0000      -0.480250       -13.0683 
  65   1.0000      -0.475764       -12.9462 
  66   1.0000      -0.474388       -12.9088 
  67   1.0000      -0.473323       -12.8798 
  68   1.0000      -0.471794       -12.8382 
  69   1.0000      -0.465027       -12.6540 
  70   1.0000      -0.461495       -12.5579 
  71   1.0000      -0.458605       -12.4793 
  72   1.0000      -0.455194       -12.3865 
  73   1.0000      -0.452360       -12.3093 
  74   1.0000      -0.448837       -12.2135 
  75   1.0000      -0.447195       -12.1688 
  76   1.0000      -0.443047       -12.0559 
  77   1.0000      -0.437059       -11.8930 
  78   1.0000      -0.434006       -11.8099 
  79   1.0000      -0.431970       -11.7545 
  80   1.0000      -0.429878       -11.6976 
  81   1.0000      -0.427287       -11.6271 
  82   1.0000      -0.422868       -11.5068 
  83   1.0000      -0.417760       -11.3678 
  84   1.0000      -0.416769       -11.3409 
  85   1.0000      -0.414595       -11.2817 
  86   1.0000      -0.412298       -11.2192 
  87   1.0000      -0.411542       -11.1986 
  88   1.0000      -0.409930       -11.1548 
  89   1.0000      -0.402835       -10.9617 
  90   1.0000      -0.388421       -10.5695 
  91   1.0000      -0.356236        -9.6937 
  92   1.0000      -0.340487        -9.2651 
  93   1.0000      -0.337354        -9.1799 
  94   1.0000      -0.295807        -8.0493 
  95   0.0000      -0.137238        -3.7344 
  96   0.0000      -0.064029        -1.7423 
  97   0.0000      -0.007859        -0.2139 
  98   0.0000       0.012631         0.3437 
  99   0.0000       0.029618         0.8059 
 100   0.0000       0.041065         1.1174 
 101   0.0000       0.042386         1.1534 
 102   0.0000       0.077865         2.1188 
 103   0.0000       0.089142         2.4257 
 104   0.0000       0.094730         2.5777 
 105   0.0000       0.111790         3.0420 
*Only the first 10 virtual orbitals were printed.

                    ********************************
                    * MULLIKEN POPULATION ANALYSIS *
                    ********************************

--------------------------------------------
MULLIKEN ATOMIC CHARGES AND SPIN POPULATIONS
--------------------------------------------
   0 C :    0.224779    0.000346
   1 O :   -0.338789   -0.000045
   2 O :   -0.289166    0.000336
   3 C :    0.381468    0.000998
   4 C :    0.267680   -0.003513
   5 C :    0.320092    0.000873
   6 C :    0.134167    0.858727
   7 C :    0.308476   -0.030337
   8 C :    0.291769    0.026645
   9 C :    0.411651    0.004981
  10 F :   -0.159191   -0.000057
  11 F :   -0.156005    0.000081
  12 F :   -0.157312    0.000680
  13 F :   -0.157163    0.001747
  14 F :   -0.161283    0.030761
  15 F :   -0.157080    0.003412
  16 F :   -0.125695    0.085224
  17 F :   -0.153664    0.006533
  18 F :   -0.153852    0.010888
  19 F :   -0.153407   -0.000090
  20 F :   -0.151893   -0.000303
  21 F :   -0.136761   -0.000010
  22 F :   -0.135036    0.002130
  23 F :   -0.135943   -0.000040
  24 H :    0.382156    0.000033
Sum of atomic charges         :    0.0000000
Sum of atomic spin populations:    1.0000000

-----------------------------------------------------
MULLIKEN REDUCED ORBITAL CHARGES AND SPIN POPULATIONS
-----------------------------------------------------
CHARGE
  0 C s       :     3.094286  s :     3.094286
      pz      :     0.764201  p :     2.387952
      px      :     0.837203
      py      :     0.786549
      dz2     :     0.052071  d :     0.268891
      dxz     :     0.021331
      dyz     :     0.055943
      dx2y2   :     0.049606
      dxy     :     0.089940
      f0      :     0.001796  f :     0.024093
      f+1     :     0.002286
      f-1     :     0.003897
      f+2     :     0.004353
      f-2     :     0.003042
      f+3     :     0.005253
      f-3     :     0.003466

  1 O s       :     3.773400  s :     3.773400
      pz      :     1.574402  p :     4.532076
      px      :     1.366707
      py      :     1.590967
      dz2     :     0.006021  d :     0.031493
      dxz     :     0.003301
      dyz     :     0.006580
      dx2y2   :     0.004150
      dxy     :     0.011441
      f0      :     0.000221  f :     0.001821
      f+1     :     0.000366
      f-1     :     0.000201
      f+2     :     0.000249
      f-2     :     0.000353
      f+3     :     0.000063
      f-3     :     0.000368

  2 O s       :     3.805204  s :     3.805204
      pz      :     1.457629  p :     4.451657
      px      :     1.665267
      py      :     1.328762
      dz2     :     0.004497  d :     0.030331
      dxz     :     0.001788
      dyz     :     0.008931
      dx2y2   :     0.007702
      dxy     :     0.007413
      f0      :     0.000126  f :     0.001973
      f+1     :     0.000029
      f-1     :     0.000450
      f+2     :     0.000348
      f-2     :     0.000213
      f+3     :     0.000403
      f-3     :     0.000405

  3 C s       :     3.029791  s :     3.029791
      pz      :     0.696091  p :     2.268005
      px      :     0.929684
      py      :     0.642231
      dz2     :     0.049805  d :     0.292696
      dxz     :     0.055236
      dyz     :     0.076042
      dx2y2   :     0.045499
      dxy     :     0.066113
      f0      :     0.006016  f :     0.028041
      f+1     :     0.003493
      f-1     :     0.004246
      f+2     :     0.004626
      f-2     :     0.002126
      f+3     :     0.004537
      f-3     :     0.002997

  4 C s       :     3.153232  s :     3.153232
      pz      :     0.689359  p :     2.249381
      px      :     0.874681
      py      :     0.685340
      dz2     :     0.059410  d :     0.301240
      dxz     :     0.057066
      dyz     :     0.071991
      dx2y2   :     0.050411
      dxy     :     0.062361
      f0      :     0.005405  f :     0.028466
      f+1     :     0.003280
      f-1     :     0.005547
      f+2     :     0.003898
      f-2     :     0.002984
      f+3     :     0.003341
      f-3     :     0.004010

  5 C s       :     3.080688  s :     3.080688
      pz      :     0.637650  p :     2.263168
      px      :     0.899595
      py      :     0.725923
      dz2     :     0.063623  d :     0.308084
      dxz     :     0.066558
      dyz     :     0.067901
      dx2y2   :     0.043531
      dxy     :     0.066470
      f0      :     0.004150  f :     0.027969
      f+1     :     0.004223
      f-1     :     0.007242
      f+2     :     0.003324
      f-2     :     0.002870
      f+3     :     0.002920
      f-3     :     0.003239

  6 C s       :     3.220426  s :     3.220426
      pz      :     0.719545  p :     2.465567
      px      :     0.856822
      py      :     0.889201
      dz2     :     0.034544  d :     0.161854
      dxz     :     0.050634
      dyz     :     0.023682
      dx2y2   :     0.024906
      dxy     :     0.028088
      f0      :     0.003948  f :     0.017985
      f+1     :     0.002896
      f-1     :     0.002270
      f+2     :     0.002908
      f-2     :     0.002679
      f+3     :     0.001896
      f-3     :     0.001389

  7 C s       :     3.079860  s :     3.079860
      pz      :     0.676954  p :     2.271042
      px      :     0.851338
      py      :     0.742750
      dz2     :     0.070270  d :     0.312512
      dxz     :     0.059520
      dyz     :     0.067594
      dx2y2   :     0.050113
      dxy     :     0.065015
      f0      :     0.004597  f :     0.028109
      f+1     :     0.002438
      f-1     :     0.006035
      f+2     :     0.003727
      f-2     :     0.005224
      f+3     :     0.003193
      f-3     :     0.002895

  8 C s       :     3.118374  s :     3.118374
      pz      :     0.668609  p :     2.261496
      px      :     0.854297
      py      :     0.738590
      dz2     :     0.070455  d :     0.299772
      dxz     :     0.052977
      dyz     :     0.067857
      dx2y2   :     0.056879
      dxy     :     0.051604
      f0      :     0.004926  f :     0.028589
      f+1     :     0.002343
      f-1     :     0.006098
      f+2     :     0.003865
      f-2     :     0.005436
      f+3     :     0.003350
      f-3     :     0.002572

  9 C s       :     3.019741  s :     3.019741
      pz      :     0.655050  p :     2.167105
      px      :     0.870649
      py      :     0.641406
      dz2     :     0.084460  d :     0.361175
      dxz     :     0.060440
      dyz     :     0.079637
      dx2y2   :     0.066835
      dxy     :     0.069802
      f0      :     0.005331  f :     0.040327
      f+1     :     0.002912
      f-1     :     0.010019
      f+2     :     0.005315
      f-2     :     0.007961
      f+3     :     0.004448
      f-3     :     0.004341

 10 F s       :     3.917943  s :     3.917943
      pz      :     1.887228  p :     5.224852
      px      :     1.894206
      py      :     1.443418
      dz2     :     0.002184  d :     0.015694
      dxz     :     0.000249
      dyz     :     0.003128
      dx2y2   :     0.006107
      dxy     :     0.004027
      f0      :     0.000056  f :     0.000702
      f+1     :     0.000014
      f-1     :     0.000140
      f+2     :     0.000085
      f-2     :     0.000016
      f+3     :     0.000173
      f-3     :     0.000218

 11 F s       :     3.915766  s :     3.915766
      pz      :     1.495244  p :     5.223735
      px      :     1.865243
      py      :     1.863248
      dz2     :     0.006622  d :     0.015786
      dxz     :     0.004289
      dyz     :     0.003596
      dx2y2   :     0.000623
      dxy     :     0.000656
      f0      :     0.000229  f :     0.000718
      f+1     :     0.000195
      f-1     :     0.000170
      f+2     :     0.000052
      f-2     :     0.000062
      f+3     :     0.000006
      f-3     :     0.000005

 12 F s       :     3.920466  s :     3.920466
      pz      :     1.873056  p :     5.220297
      px      :     1.861037
      py      :     1.486203
      dz2     :     0.002161  d :     0.015845
      dxz     :     0.000553
      dyz     :     0.003427
      dx2y2   :     0.005208
      dxy     :     0.004496
      f0      :     0.000068  f :     0.000704
      f+1     :     0.000021
      f-1     :     0.000119
      f+2     :     0.000088
      f-2     :     0.000054
      f+3     :     0.000191
      f-3     :     0.000164

 13 F s       :     3.919281  s :     3.919281
      pz      :     1.497430  p :     5.221391
      px      :     1.836014
      py      :     1.887946
      dz2     :     0.006670  d :     0.015794
      dxz     :     0.005070
      dyz     :     0.002811
      dx2y2   :     0.000687
      dxy     :     0.000557
      f0      :     0.000230  f :     0.000698
      f+1     :     0.000247
      f-1     :     0.000104
      f+2     :     0.000059
      f-2     :     0.000049
      f+3     :     0.000005
      f-3     :     0.000004

 14 F s       :     3.917627  s :     3.917627
      pz      :     1.816077  p :     5.228068
      px      :     1.874786
      py      :     1.537205
      dz2     :     0.001853  d :     0.014925
      dxz     :     0.000967
      dyz     :     0.004512
      dx2y2   :     0.004114
      dxy     :     0.003479
      f0      :     0.000076  f :     0.000664
      f+1     :     0.000013
      f-1     :     0.000101
      f+2     :     0.000142
      f-2     :     0.000091
      f+3     :     0.000126
      f-3     :     0.000116

 15 F s       :     3.921917  s :     3.921917
      pz      :     1.465691  p :     5.218745
      px      :     1.882294
      py      :     1.870760
      dz2     :     0.007275  d :     0.015722
      dxz     :     0.003991
      dyz     :     0.003485
      dx2y2   :     0.000420
      dxy     :     0.000550
      f0      :     0.000283  f :     0.000695
      f+1     :     0.000180
      f-1     :     0.000157
      f+2     :     0.000029
      f-2     :     0.000042
      f+3     :     0.000002
      f-3     :     0.000003

 16 F s       :     3.920088  s :     3.920088
      pz      :     1.555836  p :     5.187255
      px      :     1.891486
      py      :     1.739934
      dz2     :     0.005878  d :     0.017594
      dxz     :     0.003202
      dyz     :     0.005769
      dx2y2   :     0.001523
      dxy     :     0.001222
      f0      :     0.000170  f :     0.000758
      f+1     :     0.000092
      f-1     :     0.000245
      f+2     :     0.000119
      f-2     :     0.000101
      f+3     :     0.000016
      f-3     :     0.000014

 17 F s       :     3.920452  s :     3.920452
      pz      :     1.768400  p :     5.216841
      px      :     1.893571
      py      :     1.554870
      dz2     :     0.002060  d :     0.015675
      dxz     :     0.001122
      dyz     :     0.005621
      dx2y2   :     0.004205
      dxy     :     0.002667
      f0      :     0.000076  f :     0.000696
      f+1     :     0.000005
      f-1     :     0.000139
      f+2     :     0.000202
      f-2     :     0.000082
      f+3     :     0.000080
      f-3     :     0.000113

 18 F s       :     3.918045  s :     3.918045
      pz      :     1.564384  p :     5.219636
      px      :     1.772184
      py      :     1.883068
      dz2     :     0.004972  d :     0.015480
      dxz     :     0.005653
      dyz     :     0.002582
      dx2y2   :     0.001343
      dxy     :     0.000930
      f0      :     0.000133  f :     0.000690
      f+1     :     0.000262
      f-1     :     0.000078
      f+2     :     0.000115
      f-2     :     0.000076
      f+3     :     0.000015
      f-3     :     0.000011

 19 F s       :     3.917850  s :     3.917850
      pz      :     1.766530  p :     5.219012
      px      :     1.890213
      py      :     1.562269
      dz2     :     0.002085  d :     0.015839
      dxz     :     0.001145
      dyz     :     0.005707
      dx2y2   :     0.004135
      dxy     :     0.002767
      f0      :     0.000076  f :     0.000706
      f+1     :     0.000006
      f-1     :     0.000142
      f+2     :     0.000201
      f-2     :     0.000089
      f+3     :     0.000081
      f-3     :     0.000112

 20 F s       :     3.918404  s :     3.918404
      pz      :     1.561432  p :     5.216854
      px      :     1.771855
      py      :     1.883567
      dz2     :     0.005138  d :     0.015925
      dxz     :     0.005745
      dyz     :     0.002685
      dx2y2   :     0.001384
      dxy     :     0.000972
      f0      :     0.000142  f :     0.000710
      f+1     :     0.000266
      f-1     :     0.000083
      f+2     :     0.000117
      f-2     :     0.000077
      f+3     :     0.000015
      f-3     :     0.000011

 21 F s       :     3.912132  s :     3.912132
      pz      :     1.748838  p :     5.207640
      px      :     1.875931
      py      :     1.582871
      dz2     :     0.002130  d :     0.016223
      dxz     :     0.001490
      dyz     :     0.005997
      dx2y2   :     0.003870
      dxy     :     0.002736
      f0      :     0.000084  f :     0.000766
      f+1     :     0.000012
      f-1     :     0.000155
      f+2     :     0.000213
      f-2     :     0.000110
      f+3     :     0.000084
      f-3     :     0.000110

 22 F s       :     3.911126  s :     3.911126
      pz      :     1.758060  p :     5.207033
      px      :     1.848112
      py      :     1.600861
      dz2     :     0.002058  d :     0.016116
      dxz     :     0.001726
      dyz     :     0.005548
      dx2y2   :     0.003670
      dxy     :     0.003113
      f0      :     0.000084  f :     0.000762
      f+1     :     0.000019
      f-1     :     0.000139
      f+2     :     0.000180
      f-2     :     0.000137
      f+3     :     0.000101
      f-3     :     0.000101

 23 F s       :     3.911874  s :     3.911874
      pz      :     1.585906  p :     5.207025
      px      :     1.737996
      py      :     1.883123
      dz2     :     0.004738  d :     0.016275
      dxz     :     0.006289
      dyz     :     0.002379
      dx2y2   :     0.001733
      dxy     :     0.001136
      f0      :     0.000126  f :     0.000769
      f+1     :     0.000292
      f-1     :     0.000070
      f+2     :     0.000150
      f-2     :     0.000090
      f+3     :     0.000024
      f-3     :     0.000017

 24 H s       :     0.576163  s :     0.576163
      pz      :     0.011787  p :     0.041681
      px      :     0.017353
      py      :     0.012541


SPIN
  0 C s       :     0.000252  s :     0.000252
      pz      :    -0.000016  p :     0.000071
      px      :    -0.000079
      py      :     0.000166
      dz2     :    -0.000005  d :     0.000022
      dxz     :     0.000007
      dyz     :     0.000015
      dx2y2   :    -0.000005
      dxy     :     0.000010
      f0      :     0.000000  f :     0.000002
      f+1     :     0.000000
      f-1     :    -0.000001
      f+2     :     0.000000
      f-2     :     0.000000
      f+3     :     0.000001
      f-3     :     0.000000

  1 O s       :    -0.000034  s :    -0.000034
      pz      :     0.000013  p :    -0.000013
      px      :    -0.000019
      py      :    -0.000007
      dz2     :    -0.000000  d :     0.000002
      dxz     :    -0.000000
      dyz     :     0.000001
      dx2y2   :     0.000000
      dxy     :     0.000001
      f0      :     0.000000  f :     0.000000
      f+1     :     0.000000
      f-1     :     0.000000
      f+2     :     0.000000
      f-2     :     0.000000
      f+3     :     0.000000
      f-3     :     0.000000

  2 O s       :     0.000013  s :     0.000013
      pz      :     0.000267  p :     0.000324
      px      :    -0.000035
      py      :     0.000092
      dz2     :    -0.000000  d :    -0.000001
      dxz     :    -0.000000
      dyz     :    -0.000001
      dx2y2   :    -0.000000
      dxy     :     0.000000
      f0      :    -0.000000  f :    -0.000000
      f+1     :    -0.000000
      f-1     :    -0.000000
      f+2     :    -0.000000
      f-2     :    -0.000000
      f+3     :     0.000000
      f-3     :     0.000000

  3 C s       :    -0.000042  s :    -0.000042
      pz      :     0.000220  p :     0.000945
      px      :     0.000065
      py      :     0.000660
      dz2     :    -0.000013  d :     0.000090
      dxz     :     0.000009
      dyz     :     0.000015
      dx2y2   :     0.000081
      dxy     :    -0.000002
      f0      :    -0.000000  f :     0.000005
      f+1     :    -0.000000
      f-1     :     0.000000
      f+2     :     0.000001
      f-2     :     0.000003
      f+3     :     0.000001
      f-3     :     0.000000

  4 C s       :    -0.003474  s :    -0.003474
      pz      :    -0.000017  p :    -0.000118
      px      :    -0.004530
      py      :     0.004429
      dz2     :    -0.000047  d :     0.000032
      dxz     :    -0.000068
      dyz     :    -0.000047
      dx2y2   :    -0.000019
      dxy     :     0.000213
      f0      :     0.000001  f :     0.000047
      f+1     :    -0.000003
      f-1     :     0.000002
      f+2     :     0.000004
      f-2     :    -0.000003
      f+3     :     0.000036
      f-3     :     0.000009

  5 C s       :    -0.005094  s :    -0.005094
      pz      :    -0.000594  p :    -0.010686
      px      :    -0.023529
      py      :     0.013438
      dz2     :     0.002232  d :     0.015229
      dxz     :     0.001930
      dyz     :    -0.000463
      dx2y2   :     0.005084
      dxy     :     0.006446
      f0      :    -0.000023  f :     0.001424
      f+1     :     0.000467
      f-1     :     0.000119
      f+2     :     0.000395
      f-2     :     0.000010
      f+3     :     0.000287
      f-3     :     0.000168

  6 C s       :     0.055825  s :     0.055825
      pz      :     0.226529  p :     0.801449
      px      :     0.038327
      py      :     0.536593
      dz2     :     0.001877  d :     0.003676
      dxz     :     0.001222
      dyz     :     0.000348
      dx2y2   :    -0.000970
      dxy     :     0.001199
      f0      :    -0.000297  f :    -0.002223
      f+1     :    -0.000047
      f-1     :    -0.000580
      f+2     :    -0.000471
      f-2     :    -0.000375
      f+3     :    -0.000364
      f-3     :    -0.000088

  7 C s       :    -0.011149  s :    -0.011149
      pz      :    -0.006900  p :    -0.040845
      px      :    -0.029426
      py      :    -0.004519
      dz2     :    -0.000269  d :     0.020478
      dxz     :     0.008376
      dyz     :     0.001388
      dx2y2   :    -0.000425
      dxy     :     0.011408
      f0      :     0.000151  f :     0.001179
      f+1     :     0.000105
      f-1     :     0.000062
      f+2     :     0.000113
      f-2     :     0.000022
      f+3     :     0.000074
      f-3     :     0.000653

  8 C s       :     0.000813  s :     0.000813
      pz      :     0.006396  p :     0.020995
      px      :     0.003461
      py      :     0.011138
      dz2     :     0.000296  d :     0.004836
      dxz     :     0.001349
      dyz     :     0.000196
      dx2y2   :     0.002716
      dxy     :     0.000279
      f0      :    -0.000001  f :     0.000001
      f+1     :    -0.000006
      f-1     :    -0.000007
      f+2     :     0.000015
      f-2     :    -0.000000
      f+3     :     0.000002
      f-3     :    -0.000001

  9 C s       :     0.001438  s :     0.001438
      pz      :     0.000015  p :     0.003103
      px      :     0.002414
      py      :     0.000674
      dz2     :     0.000003  d :     0.000393
      dxz     :     0.000123
      dyz     :     0.000052
      dx2y2   :     0.000032
      dxy     :     0.000183
      f0      :    -0.000002  f :     0.000046
      f+1     :     0.000000
      f-1     :    -0.000000
      f+2     :     0.000014
      f-2     :     0.000007
      f+3     :    -0.000001
      f-3     :     0.000028

 10 F s       :    -0.000054  s :    -0.000054
      pz      :    -0.000005  p :    -0.000008
      px      :     0.000003
      py      :    -0.000006
      dz2     :     0.000000  d :     0.000005
      dxz     :     0.000001
      dyz     :     0.000001
      dx2y2   :     0.000000
      dxy     :     0.000002
      f0      :     0.000000  f :     0.000000
      f+1     :     0.000000
      f-1     :    -0.000000
      f+2     :     0.000000
      f-2     :     0.000000
      f+3     :     0.000000
      f-3     :    -0.000000

 11 F s       :     0.000005  s :     0.000005
      pz      :    -0.000012  p :     0.000075
      px      :     0.000049
      py      :     0.000038
      dz2     :     0.000000  d :     0.000001
      dxz     :    -0.000000
      dyz     :     0.000000
      dx2y2   :     0.000001
      dxy     :    -0.000000
      f0      :     0.000000  f :     0.000000
      f+1     :    -0.000000
      f-1     :    -0.000000
      f+2     :     0.000000
      f-2     :    -0.000000
      f+3     :     0.000000
      f-3     :     0.000000

 12 F s       :     0.000627  s :     0.000627
      pz      :    -0.000058  p :    -0.000016
      px      :    -0.000035
      py      :     0.000078
      dz2     :     0.000015  d :     0.000067
      dxz     :    -0.000001
      dyz     :     0.000002
      dx2y2   :     0.000052
      dxy     :    -0.000001
      f0      :     0.000000  f :     0.000002
      f+1     :     0.000000
      f-1     :     0.000000
      f+2     :     0.000000
      f-2     :    -0.000000
      f+3     :    -0.000000
      f-3     :     0.000002

 13 F s       :     0.000068  s :     0.000068
      pz      :    -0.000114  p :     0.001669
      px      :     0.001053
      py      :     0.000729
      dz2     :     0.000006  d :     0.000011
      dxz     :    -0.000001
      dyz     :     0.000004
      dx2y2   :     0.000001
      dxy     :     0.000001
      f0      :     0.000000  f :     0.000000
      f+1     :    -0.000000
      f-1     :     0.000000
      f+2     :     0.000000
      f-2     :     0.000000
      f+3     :     0.000000
      f-3     :    -0.000000

 14 F s       :     0.000280  s :     0.000280
      pz      :    -0.000349  p :     0.030458
      px      :     0.010252
      py      :     0.020555
      dz2     :     0.000006  d :     0.000016
      dxz     :     0.000020
      dyz     :     0.000005
      dx2y2   :     0.000004
      dxy     :    -0.000020
      f0      :     0.000001  f :     0.000006
      f+1     :     0.000000
      f-1     :     0.000000
      f+2     :    -0.000001
      f-2     :     0.000002
[...]
 11:     59.93   0.000246    1.24  0.001280  ( 0.017880  0.017376  0.025662)
 12:     68.84   0.000034    0.17  0.000153  ( 0.006381  0.001322  0.010508)
 13:     76.95   0.000026    0.13  0.000106  ( 0.003203  0.007858  0.005820)
 14:     97.14   0.000038    0.19  0.000123  ( 0.003931 -0.004524 -0.009327)
 15:    122.40   0.000210    1.06  0.000534  ( 0.009156  0.013504 -0.016380)
 16:    140.92   0.000471    2.38  0.001042  (-0.027708  0.007293 -0.014877)
 17:    177.61   0.000547    2.76  0.000961  ( 0.015441 -0.005470 -0.026309)
 18:    181.67   0.000333    1.68  0.000572  ( 0.009930  0.006088 -0.020879)
 19:    193.44   0.001073    5.42  0.001732  (-0.002109  0.008300  0.040722)
 20:    197.10   0.001076    5.44  0.001704  ( 0.028256 -0.029426  0.006323)
 21:    213.65   0.000186    0.94  0.000272  (-0.000842  0.000373  0.016453)
 22:    217.56   0.000007    0.04  0.000010  ( 0.001391  0.002905 -0.000245)
 23:    232.72   0.000090    0.45  0.000121  ( 0.002486 -0.004639 -0.009639)
 24:    252.25   0.000437    2.21  0.000541  (-0.018946 -0.013256  0.002460)
 25:    270.82   0.000959    4.85  0.001106  ( 0.030875 -0.012234 -0.001638)
 26:    277.18   0.000345    1.74  0.000388  (-0.005091  0.014338  0.012520)
 27:    302.24   0.000007    0.03  0.000007  (-0.000188 -0.001878 -0.001823)
 28:    322.58   0.000009    0.05  0.000009  (-0.002636  0.000717  0.001266)
 29:    333.17   0.000255    1.29  0.000239  (-0.012803 -0.005316 -0.006843)
 30:    343.96   0.000263    1.33  0.000239  (-0.006620  0.005599  0.012796)
 31:    359.66   0.000019    0.10  0.000017  ( 0.003949 -0.000810 -0.000504)
 32:    361.05   0.000019    0.10  0.000017  ( 0.000762  0.000422 -0.003969)
 33:    367.46   0.000774    3.91  0.000657  ( 0.016698  0.018451  0.006149)
 34:    384.92   0.000508    2.57  0.000412  ( 0.015016 -0.011844  0.006800)
 35:    429.07   0.000245    1.24  0.000179  (-0.007668 -0.000448  0.010933)
 36:    457.36   0.000882    4.46  0.000602  (-0.020729 -0.013029 -0.001574)
 37:    500.14   0.003582   18.10  0.002235  ( 0.040268  0.018033 -0.016985)
 38:    510.34   0.004322   21.84  0.002643  (-0.044361  0.011599  0.023245)
 39:    521.45   0.001851    9.36  0.001108  ( 0.010218 -0.029189 -0.012312)
 40:    533.56   0.005462   27.60  0.003194  ( 0.053713  0.016611 -0.005777)
 41:    560.85   0.009592   48.47  0.005337  (-0.033442  0.031162 -0.056988)
 42:    572.31   0.011919   60.23  0.006499  ( 0.077736  0.019947 -0.007643)
 43:    585.71   0.003626   18.32  0.001932  (-0.002229  0.022426 -0.037736)
 44:    598.64   0.003712   18.76  0.001935  ( 0.011289 -0.024641  0.034645)
 45:    615.01   0.026886  135.87  0.013642  ( 0.113142 -0.029001  0.000057)
 46:    630.70   0.039056  197.37  0.019324  (-0.113044  0.025787 -0.076683)
 47:    666.78   0.007150   36.13  0.003346  (-0.049516  0.008638  0.028630)
 48:    685.56   0.000850    4.30  0.000387  (-0.000917  0.018231 -0.007333)
 49:    707.66   0.012693   64.14  0.005597  ( 0.069212 -0.013688 -0.024891)
 50:    747.70   0.005898   29.80  0.002462  ( 0.008935  0.000033 -0.048803)
 51:    769.12   0.007013   35.44  0.002846  (-0.039299 -0.010003  0.034656)
 52:    857.30   0.022399  113.20  0.008153  ( 0.021096 -0.057932 -0.065972)
 53:    983.61   0.007291   36.85  0.002313  ( 0.037641 -0.008790 -0.028621)
 54:   1037.89   0.051710  261.32  0.015548  (-0.051526  0.108257  0.034252)
 55:   1087.32   0.036053  182.20  0.010347  ( 0.082474  0.059092 -0.007324)
 56:   1094.83   0.027077  136.84  0.007718  (-0.046168 -0.042169 -0.061712)
 57:   1114.44   0.004117   20.80  0.001153  (-0.012419  0.022812 -0.021866)
 58:   1123.73   0.074693  377.47  0.020742  ( 0.059047  0.014594 -0.130548)
 59:   1132.75   0.055488  280.41  0.015286  (-0.039262  0.105978  0.050136)
 60:   1135.16   0.008037   40.62  0.002209  (-0.000639  0.034758 -0.031636)
 61:   1140.38   0.063585  321.33  0.017400  ( 0.072174 -0.103561  0.038288)
 62:   1143.93   0.110468  558.26  0.030136  ( 0.023183  0.001143 -0.172037)
 63:   1150.23   0.120736  610.15  0.032757  ( 0.028291  0.175042  0.036280)
 64:   1175.43   0.098672  498.65  0.026196  ( 0.036135 -0.076666  0.137887)
 65:   1183.89   0.012755   64.46  0.003362  (-0.038690  0.017004  0.039700)
 66:   1214.71   0.004725   23.88  0.001214  ( 0.019812  0.027424  0.008323)
 67:   1225.35   0.003112   15.73  0.000793  ( 0.004083 -0.015638 -0.023050)
 68:   1240.61   0.017978   90.85  0.004522  ( 0.016288 -0.042867  0.049186)
 69:   1300.01   0.022000  111.18  0.005281  (-0.049169  0.015443  0.051235)
 70:   1323.42   0.025259  127.65  0.005956  (-0.076583  0.005212 -0.008001)
 71:   1373.24   0.015261   77.12  0.003468  ( 0.049962 -0.008417  0.030014)
 72:   1398.01   0.013021   65.80  0.002906  (-0.038963  0.016493  0.033411)
 73:   1808.20   0.090508  457.39  0.015620  (-0.000041 -0.107557 -0.063652)
 74:   3601.74   0.048070  242.93  0.004165  (-0.058035 -0.014052  0.024482)

* The epsilon (eps) is given for a Dirac delta lineshape.
** The dipole moment derivative (T) already includes vibrational overlap.

The first frequency considered to be a vibration is 7
The total number of vibrations considered is 68


--------------------------
THERMOCHEMISTRY AT 298.15K
--------------------------

Temperature         ...   298.15 K
Pressure            ...     1.00 atm
Total Mass          ...   395.07 AMU
Quasi RRHO          ...     True
Cut-Off Frequency   ...     1.00 cm^-1

Throughout the following assumptions are being made:
  (1) The electronic state is orbitally nondegenerate
      but the spin degeneracy is treated
  (2) There are no thermally accessible electronically excited states
  (3) Hindered rotations indicated by low frequency modes are not
      treated as such but are treated as vibrations and this may
      cause some error
  (4) All equations used are the standard statistical mechanics
      equations for an ideal gas
  (5) All vibrations are strictly harmonic

freq.      18.72  E(vib)   ...       0.57 
freq.      30.97  E(vib)   ...       0.55 
freq.      39.31  E(vib)   ...       0.54 
freq.      50.94  E(vib)   ...       0.52 
freq.      59.93  E(vib)   ...       0.51 
freq.      68.84  E(vib)   ...       0.50 
freq.      76.95  E(vib)   ...       0.49 
freq.      97.14  E(vib)   ...       0.46 
freq.     122.40  E(vib)   ...       0.43 
freq.     140.92  E(vib)   ...       0.41 
freq.     177.61  E(vib)   ...       0.37 
freq.     181.67  E(vib)   ...       0.37 
freq.     193.44  E(vib)   ...       0.36 
freq.     197.10  E(vib)   ...       0.35 
freq.     213.65  E(vib)   ...       0.34 
freq.     217.56  E(vib)   ...       0.33 
freq.     232.72  E(vib)   ...       0.32 
freq.     252.25  E(vib)   ...       0.30 
freq.     270.82  E(vib)   ...       0.29 
freq.     277.18  E(vib)   ...       0.28 
freq.     302.24  E(vib)   ...       0.26 
freq.     322.58  E(vib)   ...       0.25 
freq.     333.17  E(vib)   ...       0.24 
freq.     343.96  E(vib)   ...       0.23 
freq.     359.66  E(vib)   ...       0.22 
freq.     361.05  E(vib)   ...       0.22 
freq.     367.46  E(vib)   ...       0.21 
freq.     384.92  E(vib)   ...       0.20 
freq.     429.07  E(vib)   ...       0.18 
freq.     457.36  E(vib)   ...       0.16 
freq.     500.14  E(vib)   ...       0.14 
freq.     510.34  E(vib)   ...       0.14 
freq.     521.45  E(vib)   ...       0.13 
freq.     533.56  E(vib)   ...       0.13 
freq.     560.85  E(vib)   ...       0.11 
freq.     572.31  E(vib)   ...       0.11 
freq.     585.71  E(vib)   ...       0.11 
freq.     598.64  E(vib)   ...       0.10 
freq.     615.01  E(vib)   ...       0.10 
freq.     630.70  E(vib)   ...       0.09 
freq.     666.78  E(vib)   ...       0.08 
freq.     685.56  E(vib)   ...       0.07 
freq.     707.66  E(vib)   ...       0.07 
freq.     747.70  E(vib)   ...       0.06 
freq.     769.12  E(vib)   ...       0.06 
freq.     857.30  E(vib)   ...       0.04 
freq.     983.61  E(vib)   ...       0.02 
freq.    1037.89  E(vib)   ...       0.02 
freq.    1087.32  E(vib)   ...       0.02 
freq.    1094.83  E(vib)   ...       0.02 
freq.    1114.44  E(vib)   ...       0.01 
freq.    1123.73  E(vib)   ...       0.01 
freq.    1132.75  E(vib)   ...       0.01 
freq.    1135.16  E(vib)   ...       0.01 
freq.    1140.38  E(vib)   ...       0.01 
freq.    1143.93  E(vib)   ...       0.01 
freq.    1150.23  E(vib)   ...       0.01 
freq.    1175.43  E(vib)   ...       0.01 
freq.    1183.89  E(vib)   ...       0.01 
freq.    1214.71  E(vib)   ...       0.01 
freq.    1225.35  E(vib)   ...       0.01 
freq.    1240.61  E(vib)   ...       0.01 
freq.    1300.01  E(vib)   ...       0.01 
freq.    1323.42  E(vib)   ...       0.01 
freq.    1373.24  E(vib)   ...       0.01 
freq.    1398.01  E(vib)   ...       0.00 
freq.    1808.20  E(vib)   ...       0.00 
freq.    3601.74  E(vib)   ...       0.00 

------------
INNER ENERGY
------------

The inner energy is: U= E(el) + E(ZPE) + E(vib) + E(rot) + E(trans)
    E(el)   - is the total energy from the electronic structure calculation
              = E(kin-el) + E(nuc-el) + E(el-el) + E(nuc-nuc)
    E(ZPE)  - the the zero temperature vibrational energy from the frequency calculation
    E(vib)  - the the finite temperature correction to E(ZPE) due to population
              of excited vibrational states
    E(rot)  - is the rotational thermal energy
    E(trans)- is the translational thermal energy

Summary of contributions to the inner energy U:
Electronic energy                ...  -1854.40944653 Eh
Zero point energy                ...      0.10396038 Eh      65.24 kcal/mol
Thermal vibrational correction   ...      0.01954299 Eh      12.26 kcal/mol
Thermal rotational correction    ...      0.00141627 Eh       0.89 kcal/mol
Thermal translational correction ...      0.00141627 Eh       0.89 kcal/mol
-----------------------------------------------------------------------
Total thermal energy                  -1854.28311061 Eh


Summary of corrections to the electronic energy:
(perhaps to be used in another calculation)
Total thermal correction                  0.02237554 Eh      14.04 kcal/mol
Non-thermal (ZPE) correction              0.10396038 Eh      65.24 kcal/mol
-----------------------------------------------------------------------
Total correction                          0.12633591 Eh      79.28 kcal/mol


--------
ENTHALPY
--------

The enthalpy is H = U + kB*T
                kB is Boltzmann's constant
Total thermal energy              ...  -1854.28311061 Eh 
Thermal Enthalpy correction       ...      0.00094421 Eh       0.59 kcal/mol
-----------------------------------------------------------------------
Total Enthalpy                    ...  -1854.28216641 Eh


Note: Only C1 symmetry has been detected, increase convergence thresholds 
      if your molecule has a higher symmetry. Symmetry factor of 1.0 is   
      used for the rotational entropy correction. 
 

Note: Rotational entropy computed according to Herzberg 
Infrared and Raman Spectra, Chapter V,1, Van Nostrand Reinhold, 1945 
Point Group:  C1, Symmetry Number:   1  
Rotational constants in cm-1:     0.018916     0.004181     0.004077 

Vibrational entropy computed according to the QRRHO of S. Grimme
Chem.Eur.J. 2012 18 9955 using a reference frequency of 100.0 cm-1


-------
ENTROPY
-------

The entropy contributions are T*S = T*(S(el)+S(vib)+S(rot)+S(trans))
     S(el)   - electronic entropy
     S(vib)  - vibrational entropy
     S(rot)  - rotational entropy
     S(trans)- translational entropy
The entropies will be listed as multiplied by the temperature to get
units of energy

Electronic entropy                ...      0.00065446 Eh      0.41 kcal/mol
Vibrational entropy               ...      0.03507599 Eh     22.01 kcal/mol
Rotational entropy                ...      0.01656723 Eh     10.40 kcal/mol
Translational entropy             ...      0.02081703 Eh     13.06 kcal/mol
-----------------------------------------------------------------------
Final entropy term                ...      0.07311471 Eh     45.88 kcal/mol

In case the symmetry of your molecule has not been determined correctly
or in case you have a reason to use a different symmetry number we print 
out the resulting rotational entropy values for sn=1,12:

 non-linear molecules -----------------------------------
|  sn= 1 | S(rot)=       0.01656723 Eh     10.40 kcal/mol|
|  sn= 2 | S(rot)=       0.01591277 Eh      9.99 kcal/mol|
|  sn= 3 | S(rot)=       0.01552994 Eh      9.75 kcal/mol|
|  sn= 4 | S(rot)=       0.01525831 Eh      9.57 kcal/mol|
|  sn= 5 | S(rot)=       0.01504763 Eh      9.44 kcal/mol|
|  sn= 6 | S(rot)=       0.01487548 Eh      9.33 kcal/mol|
|  sn= 7 | S(rot)=       0.01472994 Eh      9.24 kcal/mol|
|  sn= 8 | S(rot)=       0.01460386 Eh      9.16 kcal/mol|
|  sn= 9 | S(rot)=       0.01449265 Eh      9.09 kcal/mol|
|  sn=10 | S(rot)=       0.01439317 Eh      9.03 kcal/mol|
|  sn=11 | S(rot)=       0.01430318 Eh      8.98 kcal/mol|
|  sn=12 | S(rot)=       0.01422103 Eh      8.92 kcal/mol|
 linear molecules ---------------------------------------
|  Dinfh | S(rot)=       0.01052096 Eh      6.60 kcal/mol|
|  Cinfv | S(rot)=       0.01117542 Eh      7.01 kcal/mol|
 --------------------------------------------------------


-------------------
GIBBS FREE ENERGY
-------------------

The Gibbs free energy is G = H - T*S

Total enthalpy                    ...  -1854.28216641 Eh 
Total entropy correction          ...     -0.07311471 Eh    -45.88 kcal/mol
-----------------------------------------------------------------------
Final Gibbs free energy         ...  -1854.35528111 Eh

For completeness - the Gibbs free energy minus the electronic energy
G-E(el)                           ...      0.05416541 Eh     33.99 kcal/mol


Maximum memory used throughout the entire PROP-calculation: 545.4 MB

--------------------------------
SUGGESTED CITATIONS FOR THIS RUN
--------------------------------

Below you find a list of papers that are relevant to this ORCA run
We neither can nor want to force you to cite these papers, but we appreciate if you do
You receive ORCA, which is the product of decades of hard work by many enthusiastic individuals, for free
The only thing we kindly ask in return is that you cite our papers,
We deeply appreciate it, if you show your appreciation for ORCA by not just citing the generic ORCA reference.

Please note that relegating all ORCA citations to the supporting information does *not* help us.
SI sections are not indexed - citations you put there will not count into any citation statistics
But we need these citations in order to attract the funding resources that allow us to do what we are doing

Therefore, if you are a happy ORCA user, please consider citing a few of the papers listed below in the main body of your paper

In addition to the list printed below, the program has created the file rf_mecn_freq_TP_C5_P_B.bibtex that contains the list in bibtex format
You can import this file easily into all common literature databanks and citation aid programs


List of essential papers. We consider these as the minimum necessary citations

  1. Neese,F.
     Software update: the ORCA program system, version 5.0
     WIRES Comput. Molec. Sci., 2022 12(1)e1606
     doi.org/10.1002/wcms.1606

List of papers to cite with high priority. The work reported in these papers was absolutely
necessary for this run to complete.
Our perspective: the developers of density functionals and basis sets usually get cited in chemistry papers
Good! But without the algorithms to do something with them, the functionals or basis sets would not do anything.
Hence, in our opinion, the algorithm design and method developments papers are equally worthy of getting cited

  1. Neese,F.
     An improvement of the resolution of the identity approximation for the formation of the Coulomb matrix
     J. Comp. Chem., 2003 24(14)1740-1747
     doi.org/10.1002/jcc.10318
  2. Neese,F.; Wennmohs,F.; Hansen,A.; Becker,U.
     Efficient, approximate and parallel Hartree-Fock and hybrid DFT calculations. A 'chain-of-spheres' algorithm for the Hartree-Fock exchange
     Chem. Phys., 2009 356(1-3)98-109
     doi.org/10.1016/j.chemphys.2008.10.036
  3. Bykov,D.; Petrenko,T.; Izsak,R.; Kossmann,S.; Becker,U.; Valeev,E.; Neese,F.
     Efficient implementation of the analytic second derivatives of Hartree-Fock and hybrid DFT energies: a detailed analysis of different approximations
     Molec. Phys., 2015 113 1961-1977
     doi.org/10.1080/00268976.2015.1025114
  4. Garcia-Rates,M.; Neese,F.
     Efficient implementation of the analytical second derivatives of hartree-fock and hybrid DFT energies within the framework of the conductor-like polarizable continuum model
     J. Comput. Chem., 2019 40 1816-1828
     doi.org/10.1002/jcc.25833
  5. Garcia-Rates,M.; Neese,F.
     Effect of the Solute Cavity on the Solvation Energy and its Derivatives within the Framework of the Gaussian Charge Scheme
     J. Comput. Chem., 2020 41 922-939
     doi.org/10.1002/jcc.26139
  6. Helmich-Paris,B.; de Souza,B.; Neese,F.; Izsák,R.
     An improved chain of spheres for exchange algorithm
     J. Chem. Phys., 2021 155 104109
     doi.org/doi: 10.1063/5.0058766.
  7. Neese,F.
     The SHARK Integral Generation and Digestion System
     J. Comp. Chem., 2022  1-16
     doi.org/10.1002/jcc.26942
  8. Grimme,S.; Antony,J.; Ehrlich,S.; Krieg,H.
     A consistent and accurate ab initio parametrization of density functional dispersion correction (DFT-D) for the 94 elements H-Pu
     J. Chem. Phys., 2010 132 154104
     doi.org/10.1063/1.3382344
  9. Grimme,S.; Ehrlich,S.; Goerigk,L.
     Effect of the damping function in dispersion corrected density functional theory
     J. Comput. Chem., 2011 32(7)1456-1465
     doi.org/10.1002/jcc.21759

List of suggested additional citations. These are papers that are important in the 'surrounding' of 
of this run, or papers that preceded the highly important papers. If you like your results we are grateful for a citation.

  1. Izsak,R.; Neese,F.
     An overlap fitted chain of spheres exchange method
     J. Chem. Phys., 2011 135 144105
     doi.org/10.1063/1.3646921
  2. Izsak,R.; Hansen,A.; Neese,F.
     The resolution of identity and chain of spheres approximations for the LPNO-CCSD singles Fock term
     Molec. Phys., 2012 110 2413-2417
     doi.org/10.1080/00268976.2012.687466
  3. Neese,F.
     The ORCA program system
     WIRES Comput. Molec. Sci., 2012 2(1)73-78
     doi.org/10.1002/wcms.81
  4. Izsak,R.; Neese,F.; Klopper,W.
     Robust fitting techniques in the chain of spheres approximation to the Fock exchange: The role of the complementary space
     J. Chem. Phys., 2013 139 
     doi.org/10.1063/1.4819264
  5. Neese,F.
     Software update: the ORCA program system, version 4.0
     WIRES Comput. Molec. Sci., 2018 8(1)1-6
     doi.org/10.1002/wcms.1327
  6. Neese,F.; Wennmohs,F.; Becker,U.; Riplinger,C.
     The ORCA quantum chemistry program package
     J. Chem. Phys., 2020 152 Art. No. L224108
     doi.org/10.1063/5.0004608

List of optional additional citations

  1. Neese,F.
     Approximate second-order SCF convergence for spin unrestricted wavefunctions
     Chem. Phys. Lett., 2000 325(1-3)93-98
     doi.org/10.1016/s0009-2614(00)00662-x

Timings for individual modules:

Sum of individual times          ...     1361.488 sec (=  22.691 min)
Startup calculation              ...        4.508 sec (=   0.075 min)   0.3 %
SCF iterations                   ...       92.892 sec (=   1.548 min)   6.8 %
Property integrals               ...      420.685 sec (=   7.011 min)  30.9 %
SCF Response                     ...      581.615 sec (=   9.694 min)  42.7 %
Property calculations            ...      261.787 sec (=   4.363 min)  19.2 %
                             ****ORCA TERMINATED NORMALLY****
TOTAL RUN TIME: 0 days 0 hours 22 minutes 42 seconds 668 msec
