
                                 *****************
                                 * O   R   C   A *
                                 *****************

                                            #,                                       
                                            ###                                      
                                            ####                                     
                                            #####                                    
                                            ######                                   
                                           ########,                                 
                                     ,,################,,,,,                         
                               ,,#################################,,                 
                          ,,##########################################,,             
                       ,#########################################, ''#####,          
                    ,#############################################,,   '####,        
                  ,##################################################,,,,####,       
                ,###########''''           ''''###############################       
              ,#####''   ,,,,##########,,,,          '''####'''          '####       
            ,##' ,,,,###########################,,,                        '##       
           ' ,,###''''                  '''############,,,                           
         ,,##''                                '''############,,,,        ,,,,,,###''
      ,#''                                            '''#######################'''  
     '                                                          ''''####''''         
             ,#######,   #######,   ,#######,      ##                                
            ,#'     '#,  ##    ##  ,#'     '#,    #''#        ,####,   ,####,        
            ##       ##  ##   ,#'  ##            #'  '#       #'       #'  '#        
            ##       ##  #######   ##           ,######,      #####,   #    #        
            '#,     ,#'  ##    ##  '#,     ,#' ,#      #,     #,   #   #,  ,#        
             '#######'   ##     ##  '#######'  #'      '#     '####' # '####'        



                #########################################################
                #                        -***-                          #
                #          Department of theory and spectroscopy        #
                #                                                       #
                #                      Frank Neese                      #
                #                                                       #
                #     Directorship, Architecture, Infrastructure        #
                #                    SHARK, DRIVERS                     #
                #        Core code/Algorithms in most modules           #
                #                                                       #
                #        Max Planck Institute fuer Kohlenforschung      #
                #                Kaiser Wilhelm Platz 1                 #
                #                 D-45470 Muelheim/Ruhr                 #
                #                      Germany                          #
                #                                                       #
                #                  All rights reserved                  #
                #                        -***-                          #
                #########################################################


                         Program Version 6.0.1  -  RELEASE   -


 With contributions from (in alphabetic order):
[Max-Planck-Institut fuer Kohlenforschung]                               
  Daniel Aravena         : Magnetic Suceptibility                        
  Michael Atanasov       : Ab Initio Ligand Field Theory (pilot matlab implementation)
  Alexander A. Auer      : GIAO ZORA, VPT2 properties, NMR spectrum      
  Ute Becker             : All parallelization in ORCA, NUMFREQ, NUMCALC 
  Giovanni Bistoni       : ED, misc. LED, open-shell LED, HFLD           
  Martin Brehm           : Molecular dynamics                            
  Dmytro Bykov           : pre 5.0 version of the SCF Hessian            
  Marcos Casanova-Páez   : Triplet and SCS-CIS(D). UHF-(DLPNO)-IP/EA/STEOM-CCSD. UHF-CVS-IP/STEOM-CCSD   
  Vijay G. Chilkuri      : MRCI spin determinant printing, contributions to CSF-ICE 
  Pauline Colinet        : FMM embedding                                 
  Dipayan Datta          : RHF DLPNO-CCSD density                        
  Achintya Kumar Dutta   : EOM-CC, STEOM-CC                              
  Nicolas Foglia         : Exact transition moments, OPA infrastructure, MCD improvements    
  Dmitry Ganyushin       : Spin-Orbit,Spin-Spin,Magnetic field MRCI      
  Miquel Garcia-Rates    : C-PCM and meta-GGA Hessian, CCSD/C-PCM, Gaussian charge scheme 
  Tiago L. C. Gouveia    : GS-ROHF, GS-ROCIS                             
  Yang Guo               : DLPNO-NEVPT2, F12-NEVPT2, CIM, IAO-localization        
  Andreas Hansen         : Spin unrestricted coupled pair/coupled cluster methods 
  Ingolf Harden          : AUTO-CI MPn and infrastructure                
  Benjamin Helmich-Paris : MC-RPA, TRAH-(SCF,CASSCF), AVAS, COSX integrals, SCF dyn. polar. 
  Lee Huntington         : MR-EOM, pCC                                   
  Robert Izsak           : Overlap fitted RIJCOSX, COSX-SCS-MP3, EOM     
  Riya Kayal             : Wick's Theorem for AUTO-CI, AUTO-CI UHF-CCSDT 
  Emily Kempfer          : AUTO-CI, RHF CISDT and CCSDT                  
  Christian Kollmar      : KDIIS, OOCD, Brueckner-CCSD(T), CCSD density, CASPT2, CASPT2-K, improved NEVPT2 
  Axel Koslowski         : Symmetry handling                             
  Simone Kossmann        : meta-GGA functionals, TD-DFT gradient, OOMP2, (MP2 Hessian; deprecated post 5.0) 
  Lucas Lang             : DCDCAS                                        
  Marvin Lechner         : AUTO-CI (C++ implementation), FIC-MRCC        
  Spencer Leger          : CASSCF response                               
  Dagmar Lenk            : GEPOL surface, SMD, ORCA-2-JSON               
  Dimitrios Liakos       : Extrapolation schemes; Compound Job, initial MDCI parallelization 
  Dimitrios Manganas     : Further ROCIS development; embedding schemes. LFT, Crystal Embedding 
  Dimitrios Pantazis     : SARC Basis sets                               
  Anastasios Papadopoulos: AUTO-CI, single reference methods and gradients 
  Taras Petrenko         : pre 6.0 DFT Hessian and TD-DFT gradient, (ASA, deprecated), ECA, 1-Electron XAS/XES, NRVS 
  Peter Pinski           : DLPNO-MP2, DLPNO-MP2 Gradient                 
  Christoph Reimann      : Effective Core Potentials                     
  Marius Retegan         : Local ZFS, SOC                                
  Christoph Riplinger    : Optimizer, TS searches, QM/MM, DLPNO-CCSD(T), (RO)-DLPNO pert. Triples 
  Michael Roemelt        : Original ROCIS implementation                 
  Masaaki Saitow         : Open-shell DLPNO-CCSD energy and density      
  Barbara Sandhoefer     : DKH picture change effects                    
  Kantharuban Sivalingam : CASSCF convergence/infrastructure, NEVPT2 and variants, FIC-MRCI 
  Bernardo de Souza      : ESD, SOC TD-DFT                               
  Georgi L. Stoychev     : AutoAux, RI-MP2 NMR, DLPNO-MP2 response, X2C  
  Van Anh Tran           : RI-MP2 g-tensors                              
  Willem Van den Heuvel  : Paramagnetic NMR                              
  Zikuan Wang            : NOTCH, Electric field optimization            
  Frank Wennmohs         : Technical directorship and infrastructure     
  Hang Xu                : AUTO-CI-Response properties                   
                                                                         
[FACCTs GmbH]                                                            
  Markus Bursch, Miquel Garcia-Rates, Christoph Riplinger, Bernardo de Souza, Georgi L. Stoychev 
                                                                 
  APM, Basis sets (HGBS, AHGBS, def-TZVP (Ac-Lr), def2-XVPD (La-Lu)), CI-OPT, improved COSX, DLPNO-Multilevel,           
  DOCKER, DRACO, updates on ESD, GOAT, IRC, LR-CPCM, MBIS, meta-GGA TD-DFT gradient, ML-optimized integration grids, 
  MM, NACMEs, nearIR, NEB, NEB-TS, NL-DFT gradient (VV10), 2- and 3-layer-ONIOM, interface openCOSMO-RS, QMMM,   
  Crystal-QMMM, SF, symmetry and pop. for TD-DFT, r2SCAN hybrids, SOLVATOR                                   
                                                                         
[Other institutions]                                                     
  V. Asgeirsson          : NEB                                           
  Christoph Bannwarth    : sTDA-DFT, sTD-DFT, PBEh-3c, B97-3c, D3        
  Sebastian Ehlert       : rSCAN, r2SCAN, r2SCAN-3c, D4, dhf basis sets  
  Marvin Friede          : D4 for Fr, Ra, Ac-Lr                          
  Lars Goerigk           : TD-DFT with DH, B97 family of functionals     
  Stefan Grimme          : VdW corrections, initial TS optimization, DFT functionals, gCP, sTDA/sTD-DF 
  Waldemar Hujo          : DFT-NL                                        
  H. Jonsson             : NEB                                           
  Holger Kruse           : gCP                                           
  Marcel Mueller         : wB97X-3c, vDZP basis set                      
  Hagen Neugebauer       : wr2SCAN                                       
  Tobias Risthaus        : range-separated hybrid DFT                    
  Lukas Wittmann         : regularized MP2, r2SCAN double-hybrids, wr2SCAN        
                                                                         
We gratefully acknowledge several colleagues who have allowed us to      
interface, adapt or use parts of their codes:                            
  Ed Valeev, F. Pavosevic, A. Kumar             : LibInt (2-el integral package), F12 methods 
  Garnet Chan, S. Sharma, J. Yang, R. Olivares  : DMRG                   
  Ulf Ekstrom                                   : XCFun DFT Library      
  Mihaly Kallay                                 : mrcc  (arbitrary order and MRCC methods)
  Frank Weinhold                                : gennbo (NPA and NBO analysis)           
  Simon Mueller                                 : openCOSMO-RS                            
  Christopher J. Cramer and Donald G. Truhlar   : smd solvation model                     
  S Lehtola, MJT Oliveira, MAL Marques          : LibXC Library                           
  Liviu Ungur et al                             : ANISO software                          


 Your calculation uses the libint2 library for the computation of 2-el integrals
 For citations please refer to: http://libint.valeyev.net

 Your ORCA version has been built with support for libXC version: 6.2.2
 For citations please refer to: https://libxc.gitlab.io

 This ORCA versions uses:
   CBLAS   interface :  Fast vector & matrix operations
   LAPACKE interface :  Fast linear algebra routines
   SCALAPACK package :  Parallel linear algebra routines
   Shared memory     :  Shared parallel matrices
   BLAS/LAPACK       :  OpenBLAS 0.3.27  USE64BITINT DYNAMIC_ARCH NO_AFFINITY SkylakeX SINGLE_THREADED
        Core in use  :  SkylakeX
   Copyright (c) 2011-2014, The OpenBLAS Project


NOTE: MaxCore=8000 MB was set to SCF,MP2,MDCI,CIPSI,MRCI and CIS
      => If you want to overwrite this, your respective input block should be placed after the MaxCore statement
Your calculation utilizes the atom-pairwise dispersion correction
with the Becke-Johnson damping scheme (D3BJ)


Your calculation utilizes the SMD solvation module
Please cite in your paper:
A.V. Marenich, C.J. Cramer, D.G. Truhlar J. Phys. Chem. B, 113, (2009), 6378 

Warning: RI is on but no J-basis has been assigned. Assigning Def2/J (nothing to worry about!)
================================================================================

----- Orbital basis set information -----
Your calculation utilizes the basis: def2-TZVP
   F. Weigend and R. Ahlrichs, Phys. Chem. Chem. Phys. 7, 3297 (2005).

----- AuxJ basis set information -----
Your calculation utilizes the auxiliary basis: def2/J
   F. Weigend, Phys. Chem. Chem. Phys. 8, 1057 (2006).

================================================================================
                                        WARNINGS
                       Please study these warnings very carefully!
================================================================================


WARNING: Geometry Optimization
  ===> : Switching off AutoStart
         For restart on a previous wavefunction, please use MOREAD

================================================================================
                                       INPUT FILE
================================================================================
NAME = rf_mecn_2H2O_opt_B3L_sw_003.inp
|  1> !B3LYP def2-TZVP opt d3 TightSCF SlowConv defgrid2
|  2>  
|  3> %pal
|  4> nprocs 20
|  5> end
|  6>  
|  7> %scf
|  8> MaxIter 1500
|  9> end
| 10>  
| 11> %maxcore 8000
| 12>  
| 13> !CPCM
| 14> %cpcm smd true
| 15> SMDsolvent "ACETONITRILE"
| 16> end
| 17>  
| 18> * xyz -1 1
| 19> 6        7.061480798     27.780530965      3.106576640
| 20> 6        6.358244798     26.583375965      2.416992640
| 21> 6        7.290739798     25.361615965      2.191470640
| 22> 6        6.503816798     24.050508965      1.905927640
| 23> 6        7.390081798     22.949036965      1.254848640
| 24> 6        6.769590798     21.526080965      1.366223640
| 25> 6        7.389881798     20.495443965      0.400529640
| 26> 6        7.047594798     19.000380965      0.790287640
| 27> 9        8.211006798     28.061334965      2.509442640
| 28> 9        7.286980798     27.526353965      4.384782640
| 29> 9        6.271788798     28.845445965      3.024205640
| 30> 9        5.320618798     26.239799965      3.188367640
| 31> 9        5.906995798     27.014763965      1.236217640
| 32> 9        8.092105798     25.656497965      1.162788640
| 33> 9        8.034091798     25.196969965      3.293178640
| 34> 9        6.010694798     23.624429965      3.072509640
| 35> 9        5.491631798     24.352956965      1.082460640
| 36> 9        7.554809798     23.292706965     -0.028459360
| 37> 9        8.581822798     22.977688965      1.870991640
| 38> 9        6.960326798     21.133942965      2.637027640
| 39> 9        5.455181798     21.663434965      1.139465640
| 40> 9        6.910796798     20.782536965     -0.839488360
| 41> 9        8.723370798     20.748082965      0.370020640
| 42> 8        8.017941798     18.242246965      0.795072640
| 43> 8        5.838755798     18.846145965      1.003745640
| 44> 8        3.022589945     18.615377681      1.418469618
| 45> 1        2.921133959     17.670398128      1.249412630
| 46> 1        3.952270754     18.785006115      1.221543930
| 47> 1        9.651244624     17.272645385      0.841919800
| 48> 8       10.455174784     16.738287734      0.846178529
| 49> 1       10.221449611     15.976809483      1.391507198
| 50> *
| 51> 
| 52>                          ****END OF INPUT****
================================================================================

                       *****************************
                       * Geometry Optimization Run *
                       *****************************

Geometry optimization settings:
Update method            Update   .... BFGS
Choice of coordinates    CoordSys .... (2022) Redundant Internals
Initial Hessian          InHess   .... Almloef's Model
Max. no of cycles        MaxIter  .... 93

Convergence Tolerances:
Energy Change            TolE     ....  5.0000e-06 Eh
Max. Gradient            TolMAXG  ....  3.0000e-04 Eh/bohr
RMS Gradient             TolRMSG  ....  1.0000e-04 Eh/bohr
Max. Displacement        TolMAXD  ....  4.0000e-03 bohr
RMS Displacement         TolRMSD  ....  2.0000e-03 bohr
Strict Convergence                .... False

------------------------------------------------------------------------------
                        ORCA OPTIMIZATION COORDINATE SETUP
------------------------------------------------------------------------------

The optimization will be done in redundant internal coordinates (2022)
Making redundant internal coordinates   ...  (2022 redundants) done
Evaluating the initial hessian          ...  (Almloef) done
Evaluating the coordinates              ...  done
Calculating the B-matrix                .... done
Calculating the G-matrix                .... done
Diagonalizing the G-matrix              .... done
Small eigenvalue found = 2.044e-03
Small eigenvalue found = 6.984e-03
Small eigenvalue found = 8.997e-03
Small eigenvalue found = 1.096e-02
Small eigenvalue found = 1.565e-02
The first mode is                       ....   43
The number of degrees of freedom        ....   87

    -----------------------------------------------------------------
                    Redundant Internal Coordinates


    -----------------------------------------------------------------
         Definition                    Initial Value    Approx d2E/dq
    -----------------------------------------------------------------
      1. B(C   1,C   0)                  1.5502         0.346804   
      2. B(C   2,C   1)                  1.5534         0.342781   
      3. B(C   3,C   2)                  1.5556         0.340086   
      4. B(C   4,C   3)                  1.5565         0.338954   
      5. B(C   5,C   4)                  1.5563         0.339111   
      6. B(C   6,C   5)                  1.5426         0.356709   
      7. B(C   7,C   6)                  1.5825         0.308055   
      8. B(F   8,C   0)                  1.3255         0.659090   
      9. B(F   9,C   0)                  1.3226         0.666042   
     10. B(F  10,C   0)                  1.3283         0.652181   
     11. B(F  11,C   1)                  1.3378         0.629847   
     12. B(F  12,C   1)                  1.3356         0.634870   
     13. B(F  13,C   2)                  1.3369         0.631928   
     14. B(F  14,C   2)                  1.3392         0.626649   
     15. B(F  15,C   3)                  1.3363         0.633409   
     16. B(F  16,C   3)                  1.3394         0.626090   
     17. B(F  17,C   4)                  1.3387         0.627782   
     18. B(F  18,C   4)                  1.3419         0.620447   
     19. B(F  19,C   5)                  1.3435         0.616728   
     20. B(F  20,C   5)                  1.3409         0.622782   
     21. B(F  21,C   6)                  1.3600         0.580545   
     22. B(F  22,C   6)                  1.3576         0.585779   
     23. B(O  23,C   7)                  1.2314         1.002075   
     24. B(O  24,C   7)                  1.2372         0.981004   
     25. B(H  26,O  25)                  0.9653         0.509876   
     26. B(H  27,O  24)                  1.9000         0.016453   
     27. B(H  27,O  25)                  0.9653         0.509876   
     28. B(H  28,O  23)                  1.9000         0.016453   
     29. B(O  29,H  28)                  0.9653         0.509876   
     30. B(H  30,O  29)                  0.9653         0.509876   
     31. A(F   8,C   0,F   9)          109.1619         0.434870   
     32. A(F   9,C   0,F  10)          108.3827         0.434046   
     33. A(F   8,C   0,F  10)          108.5307         0.433227   
     34. A(C   1,C   0,F  10)          108.7739         0.390821   
     35. A(C   1,C   0,F   9)          111.0282         0.392261   
     36. A(C   1,C   0,F   8)          110.8930         0.391542   
     37. A(C   2,C   1,F  11)          110.3230         0.387660   
     38. A(C   0,C   1,F  11)          107.0787         0.388450   
     39. A(C   0,C   1,C   2)          113.5553         0.353571   
     40. A(F  11,C   1,F  12)          109.3079         0.427641   
     41. A(C   2,C   1,F  12)          109.1769         0.388197   
     42. A(C   0,C   1,F  12)          107.2827         0.388989   
     43. A(C   3,C   2,F  13)          110.3587         0.387350   
     44. A(F  13,C   2,F  14)          109.1107         0.426896   
     45. A(C   1,C   2,F  14)          108.0873         0.387316   
     46. A(C   1,C   2,C   3)          112.6983         0.352402   
     47. A(C   1,C   2,F  13)          107.3405         0.387883   
     48. A(C   3,C   2,F  14)          109.1587         0.386784   
     49. A(F  15,C   3,F  16)          109.2595         0.427007   
     50. A(C   2,C   3,C   4)          112.6559         0.351734   
     51. A(C   4,C   3,F  15)          110.4668         0.387282   
     52. A(C   2,C   3,F  15)          107.1682         0.387508   
     53. A(C   4,C   3,F  16)          109.4458         0.386499   
     54. A(C   2,C   3,F  16)          107.7470         0.386724   
     55. A(C   3,C   4,F  18)          107.3682         0.385890   
     56. A(C   5,C   4,F  17)          110.6326         0.386712   
     57. A(C   3,C   4,F  17)          106.8213         0.386681   
     58. A(C   3,C   4,C   5)          112.9589         0.351563   
     59. A(F  17,C   4,F  18)          108.9895         0.425634   
     60. A(C   5,C   4,F  18)          109.9216         0.385921   
     61. A(C   4,C   5,C   6)          113.9380         0.354615   
     62. A(F  19,C   5,F  20)          109.2091         0.424568   
     63. A(C   6,C   5,F  20)          110.9006         0.389596   
     64. A(C   4,C   5,F  20)          106.5622         0.386174   
     65. A(C   6,C   5,F  19)          109.8795         0.388932   
     66. A(C   4,C   5,F  19)          106.1374         0.385517   
     67. A(C   5,C   6,C   7)          112.9578         0.348903   
     68. A(F  21,C   6,F  22)          106.6335         0.415450   
     69. A(C   7,C   6,F  22)          113.1920         0.375779   
     70. A(C   5,C   6,F  22)          106.5420         0.385457   
     71. A(C   7,C   6,F  21)          110.3532         0.375197   
     72. A(C   5,C   6,F  21)          106.7446         0.384856   
     73. A(O  23,C   7,O  24)          133.8297         0.508781   
     74. A(C   6,C   7,O  24)          111.8150         0.413089   
     75. A(C   6,C   7,O  23)          114.3410         0.414652   
     76. A(C   7,O  23,H  28)          172.5992         0.232430   
     77. A(C   7,O  24,H  27)          173.6796         0.231741   
     78. A(H  26,O  25,H  27)          103.7396         0.319780   
     79. A(O  24,H  27,O  25)          170.1504         0.195092   
     80. L(O  23,H  28,O  29,H  30, 2) 175.8870         0.195092   
     81. L(O  23,H  28,O  29,H  30, 1) 178.2261         0.195092   
     82. A(H  28,O  29,H  30)          103.7396         0.319780   
     83. D(C   2,C   1,C   0,F  10)    168.2729         0.009705   
     84. D(F  11,C   1,C   0,F   9)     49.4768         0.009705   
     85. D(F  11,C   1,C   0,F   8)    171.0207         0.009705   
     86. D(F  11,C   1,C   0,F  10)    -69.7011         0.009705   
     87. D(C   2,C   1,C   0,F   9)    -72.5492         0.009705   
     88. D(C   2,C   1,C   0,F   8)     48.9947         0.009705   
     89. D(C   3,C   2,C   1,C   0)    162.7875         0.009500   
     90. D(F  13,C   2,C   1,F  11)    164.2939         0.009500   
     91. D(F  13,C   2,C   1,C   0)    -75.4998         0.009500   
     92. D(F  13,C   2,C   1,F  12)     44.1537         0.009500   
     93. D(C   3,C   2,C   1,F  11)     42.5812         0.009500   
     94. D(C   3,C   2,C   1,F  12)    -77.5590         0.009500   
     95. D(C   4,C   3,C   2,F  13)     42.1846         0.009364   
     96. D(C   4,C   3,C   2,F  14)    -77.7232         0.009364   
     97. D(C   4,C   3,C   2,C   1)    162.1720         0.009364   
     98. D(F  15,C   3,C   2,F  14)     43.9807         0.009364   
     99. D(F  15,C   3,C   2,F  13)    163.8885         0.009364   
    100. D(F  15,C   3,C   2,C   1)    -76.1241         0.009364   
    101. D(F  17,C   4,C   3,F  16)     43.8732         0.009308   
    102. D(F  17,C   4,C   3,F  15)    164.2137         0.009308   
    103. D(F  17,C   4,C   3,C   2)    -75.9715         0.009308   
    104. D(C   5,C   4,C   3,F  16)    -77.9884         0.009308   
    105. D(C   5,C   4,C   3,F  15)     42.3521         0.009308   
    106. D(C   5,C   4,C   3,C   2)    162.1669         0.009308   
    107. D(F  19,C   5,C   4,F  18)     44.0726         0.009315   
    108. D(F  19,C   5,C   4,F  17)    164.4895         0.009315   
    109. D(F  19,C   5,C   4,C   3)    -75.8189         0.009315   
    110. D(C   6,C   5,C   4,F  18)    -76.9753         0.009315   
    111. D(C   6,C   5,C   4,F  17)     43.4416         0.009315   
    112. D(C   6,C   5,C   4,C   3)    163.1331         0.009315   
    113. D(C   7,C   6,C   5,C   4)    164.0956         0.010222   
    114. D(F  21,C   6,C   5,F  20)     45.7788         0.010222   
    115. D(F  21,C   6,C   5,F  19)    166.6154         0.010222   
    116. D(F  21,C   6,C   5,C   4)    -74.4447         0.010222   
    117. D(C   7,C   6,C   5,F  20)    -75.6808         0.010222   
    118. D(C   7,C   6,C   5,F  19)     45.1557         0.010222   
    119. D(O  24,C   7,C   6,F  21)    -70.5516         0.007386   
    120. D(O  24,C   7,C   6,C   5)     48.8461         0.007386   
    121. D(O  23,C   7,C   6,F  22)    -11.1459         0.007386   
    122. D(O  23,C   7,C   6,F  21)    108.2663         0.007386   
    123. D(O  23,C   7,C   6,C   5)   -132.3360         0.007386   
    124. D(H  28,O  23,C   7,O  24)   -156.6482         0.082309   
    125. D(H  28,O  23,C   7,C   6)     24.8732         0.082309   
    126. D(H  27,O  24,C   7,O  23)   -158.3762         0.078375   
    127. D(H  27,O  24,C   7,C   6)     20.1307         0.078375   
    128. D(O  24,H  27,O  25,H  26)    -44.6419         0.289652   
    129. D(O  25,H  27,O  24,C   7)    180.0000         0.001625   
    130. D(H  30,O  29,O  23,C   7)    137.7355         0.001500   
    -----------------------------------------------------------------

Number of atoms                         .... 31
Number of degrees of freedom            .... 130


         *************************************************************
         *                GEOMETRY OPTIMIZATION CYCLE   1            *
         *************************************************************
---------------------------------
CARTESIAN COORDINATES (ANGSTROEM)
---------------------------------
  C      7.061481   27.780531    3.106577
  C      6.358245   26.583376    2.416993
  C      7.290740   25.361616    2.191471
  C      6.503817   24.050509    1.905928
  C      7.390082   22.949037    1.254849
  C      6.769591   21.526081    1.366224
  C      7.389882   20.495444    0.400530
  C      7.047595   19.000381    0.790288
  F      8.211007   28.061335    2.509443
  F      7.286981   27.526354    4.384783
  F      6.271789   28.845446    3.024206
  F      5.320619   26.239800    3.188368
  F      5.906996   27.014764    1.236218
  F      8.092106   25.656498    1.162789
  F      8.034092   25.196970    3.293179
  F      6.010695   23.624430    3.072510
  F      5.491632   24.352957    1.082461
  F      7.554810   23.292707   -0.028459
  F      8.581823   22.977689    1.870992
  F      6.960327   21.133943    2.637028
  F      5.455182   21.663435    1.139466
  F      6.910797   20.782537   -0.839488
  F      8.723371   20.748083    0.370021
  O      8.017942   18.242247    0.795073
  O      5.838756   18.846146    1.003746
  O      3.022590   18.615378    1.418470
  H      2.921134   17.670398    1.249413
  H      3.952271   18.785006    1.221544
  H      9.651245   17.272645    0.841920
  O     10.455175   16.738288    0.846179
  H     10.221450   15.976809    1.391507

----------------------------
CARTESIAN COORDINATES (A.U.)
----------------------------
  NO LB      ZA    FRAG     MASS         X           Y           Z
   0 C     6.0000    0    12.011   13.344265   52.497595    5.870579
   1 C     6.0000    0    12.011   12.015341   50.235300    4.567454
   2 C     6.0000    0    12.011   13.777502   47.926508    4.141279
   3 C     6.0000    0    12.011   12.290433   45.448875    3.601681
   4 C     6.0000    0    12.011   13.965231   43.367395    2.371320
   5 C     6.0000    0    12.011   12.792673   40.678398    2.581789
   6 C     6.0000    0    12.011   13.964853   38.730776    0.756891
   7 C     6.0000    0    12.011   13.318024   35.905516    1.493427
   8 F     9.0000    0    18.998   15.516554   53.028238    4.742159
   9 F     9.0000    0    18.998   13.770398   52.017270    8.286038
  10 F     9.0000    0    18.998   11.851963   54.509993    5.714920
  11 F     9.0000    0    18.998   10.054512   49.586036    6.025142
  12 F     9.0000    0    18.998   11.162604   51.050505    2.336113
  13 F     9.0000    0    18.998   15.291864   48.483755    2.197352
  14 F     9.0000    0    18.998   15.182233   47.615373    6.223206
  15 F     9.0000    0    18.998   11.358567   44.643703    5.806202
  16 F     9.0000    0    18.998   10.377680   46.020419    2.045554
  17 F     9.0000    0    18.998   14.276522   44.016837   -0.053780
  18 F     9.0000    0    18.998   16.217295   43.421539    3.535662
  19 F     9.0000    0    18.998   13.153111   39.937364    4.983260
  20 F     9.0000    0    18.998   10.308800   40.937959    2.153278
  21 F     9.0000    0    18.998   13.059513   39.273303   -1.586403
  22 F     9.0000    0    18.998   16.484782   39.208195    0.699238
  23 O     8.0000    0    15.999   15.151714   34.472851    1.502470
  24 O     8.0000    0    15.999   11.033649   35.614055    1.896804
  25 O     8.0000    0    15.999    5.711867   35.177966    2.680519
  26 H     1.0000    0     1.008    5.520143   33.392213    2.361048
  27 H     1.0000    0     1.008    7.468709   35.498517    2.308383
  28 H     1.0000    0     1.008   18.238209   32.640569    1.590998
  29 O     8.0000    0    15.999   19.757417   31.630780    1.599046
  30 H     1.0000    0     1.008   19.315740   30.191794    2.629568

--------------------------------
INTERNAL COORDINATES (ANGSTROEM)
--------------------------------
 C      0   0   0     0.000000000000     0.00000000     0.00000000
 C      1   0   0     1.550240967971     0.00000000     0.00000000
 C      2   1   0     1.553417070561   113.55533844     0.00000000
 C      3   2   1     1.555565549319   112.69827683   162.78749478
 C      4   3   2     1.556473604418   112.65593685   162.17204174
 C      5   4   3     1.556347406475   112.95890429   162.16693919
 C      6   5   4     1.542575266263   113.93798420   163.13314068
 C      7   6   5     1.582493305800   112.95775891   164.09560104
 F      1   2   3     1.325454610708   110.89295443    48.99470066
 F      1   2   3     1.322598493786   111.02821211   287.45080856
 F      1   2   3     1.328323151093   108.77385697   168.27294708
 F      2   1   3     1.337808496862   107.07872998   122.02597894
 F      2   1   3     1.335646235786   107.28270546   239.27402584
 F      3   2   1     1.336910437166   107.34054952   284.50021141
 F      3   2   1     1.339194167581   108.08730739    42.06766241
 F      4   3   2     1.336273244456   107.16821115   283.87589533
 F      4   3   2     1.339436884298   107.74698212    41.35047990
 F      5   4   3     1.338702284210   106.82131950   284.02853646
 F      5   4   3     1.341901540589   107.36821732    40.81959257
 F      6   5   4     1.343538328131   106.13743735   284.18106314
 F      6   5   4     1.340878939786   106.56217547    40.50128759
 F      7   6   5     1.359996128008   106.74461671   285.55525164
 F      7   6   5     1.357553010576   106.54195382    39.20780969
 O      8   7   6     1.231407064536   114.34099629   227.66396244
 O      8   7   6     1.237192176224   111.81500307    48.84611502
 O     25   8   7     2.855878164494   176.99440113    20.13066459
 H     26  25   8     0.965328927296    99.05067288   136.27702780
 H     26  25   8     0.965328927795     6.53484144     0.00000000
 H     24   8   7     1.900000000463   172.59922467    24.87320924
 O     29  24   8     0.965328927419   176.86204995   192.48080421
 H     30  29  24     0.965328928642   103.73958492   302.80250789

---------------------------
INTERNAL COORDINATES (A.U.)
---------------------------
 C      0   0   0     0.000000000000     0.00000000     0.00000000
 C      1   0   0     2.929530871051     0.00000000     0.00000000
 C      2   1   0     2.935532835118   113.55533844     0.00000000
 C      3   2   1     2.939592871575   112.69827683   162.78749478
 C      4   3   2     2.941308847027   112.65593685   162.17204174
 C      5   4   3     2.941070367477   112.95890429   162.16693919
 C      6   5   4     2.915044794197   113.93798420   163.13314068
 C      7   6   5     2.990478956726   112.95775891   164.09560104
 F      1   2   3     2.504746217182   110.89295443    48.99470066
 F      1   2   3     2.499348938392   111.02821211   287.45080856
 F      1   2   3     2.510166972913   108.77385697   168.27294708
 F      2   1   3     2.528091678703   107.07872998   122.02597894
 F      2   1   3     2.524005597439   107.28270546   239.27402584
 F      3   2   1     2.526394591825   107.34054952   284.50021141
 F      3   2   1     2.530710216873   108.08730739    42.06766241
 F      4   3   2     2.525190472108   107.16821115   283.87589533
 F      4   3   2     2.531168884996   107.74698212    41.35047990
 F      5   4   3     2.529780692011   106.82131950   284.02853646
 F      5   4   3     2.535826410399   107.36821732    40.81959257
 F      6   5   4     2.538919490593   106.13743735   284.18106314
 F      6   5   4     2.533893974938   106.56217547    40.50128759
 F      7   6   5     2.570020225129   106.74461671   285.55525164
 F      7   6   5     2.565403402268   106.54195382    39.20780969
 O      8   7   6     2.327022111350   114.34099629   227.66396244
 O      8   7   6     2.337954388093   111.81500307    48.84611502
 O     25   8   7     5.396827602739   176.99440113    20.13066459
 H     26  25   8     1.824207301742    99.05067288   136.27702780
 H     26  25   8     1.824207302685     6.53484144     0.00000000
 H     24   8   7     3.590479655325   172.59922467    24.87320924
 O     29  24   8     1.824207301974   176.86204995   192.48080421
 H     30  29  24     1.824207304285   103.73958492   302.80250789

---------------------
BASIS SET INFORMATION
---------------------
There are 4 groups of distinct atoms

 Group   1 Type C   : 11s6p2d1f contracted to 5s3p2d1f pattern {62111/411/11/1}
 Group   2 Type F   : 11s6p2d1f contracted to 5s3p2d1f pattern {62111/411/11/1}
 Group   3 Type O   : 11s6p2d1f contracted to 5s3p2d1f pattern {62111/411/11/1}
 Group   4 Type H   : 5s1p contracted to 3s1p pattern {311/1}

Atom   0C    basis set group =>   1
Atom   1C    basis set group =>   1
Atom   2C    basis set group =>   1
Atom   3C    basis set group =>   1
Atom   4C    basis set group =>   1
Atom   5C    basis set group =>   1
Atom   6C    basis set group =>   1
Atom   7C    basis set group =>   1
Atom   8F    basis set group =>   2
Atom   9F    basis set group =>   2
Atom  10F    basis set group =>   2
Atom  11F    basis set group =>   2
Atom  12F    basis set group =>   2
Atom  13F    basis set group =>   2
Atom  14F    basis set group =>   2
Atom  15F    basis set group =>   2
Atom  16F    basis set group =>   2
Atom  17F    basis set group =>   2
Atom  18F    basis set group =>   2
Atom  19F    basis set group =>   2
Atom  20F    basis set group =>   2
Atom  21F    basis set group =>   2
Atom  22F    basis set group =>   2
Atom  23O    basis set group =>   3
Atom  24O    basis set group =>   3
Atom  25O    basis set group =>   3
Atom  26H    basis set group =>   4
Atom  27H    basis set group =>   4
Atom  28H    basis set group =>   4
Atom  29O    basis set group =>   3
Atom  30H    basis set group =>   4
---------------------------------
AUXILIARY/J BASIS SET INFORMATION
---------------------------------
There are 4 groups of distinct atoms

 Group   1 Type C   : 12s5p4d2f1g contracted to 6s4p3d1f1g pattern {711111/2111/211/2/1}
 Group   2 Type F   : 12s5p4d2f1g contracted to 6s4p3d1f1g pattern {711111/2111/211/2/1}
 Group   3 Type O   : 12s5p4d2f1g contracted to 6s4p3d1f1g pattern {711111/2111/211/2/1}
 Group   4 Type H   : 5s2p1d contracted to 3s1p1d pattern {311/2/1}

Atom   0C    basis set group =>   1
Atom   1C    basis set group =>   1
Atom   2C    basis set group =>   1
Atom   3C    basis set group =>   1
Atom   4C    basis set group =>   1
Atom   5C    basis set group =>   1
Atom   6C    basis set group =>   1
Atom   7C    basis set group =>   1
Atom   8F    basis set group =>   2
Atom   9F    basis set group =>   2
Atom  10F    basis set group =>   2
Atom  11F    basis set group =>   2
Atom  12F    basis set group =>   2
Atom  13F    basis set group =>   2
Atom  14F    basis set group =>   2
Atom  15F    basis set group =>   2
Atom  16F    basis set group =>   2
Atom  17F    basis set group =>   2
Atom  18F    basis set group =>   2
Atom  19F    basis set group =>   2
Atom  20F    basis set group =>   2
Atom  21F    basis set group =>   2
Atom  22F    basis set group =>   2
Atom  23O    basis set group =>   3
Atom  24O    basis set group =>   3
Atom  25O    basis set group =>   3
Atom  26H    basis set group =>   4
Atom  27H    basis set group =>   4
Atom  28H    basis set group =>   4
Atom  29O    basis set group =>   3
Atom  30H    basis set group =>   4


           ************************************************************
           *        Program running with 20 parallel MPI-processes    *
           *              working on a common directory               *
           ************************************************************
------------------------------------------------------------------------------
                             ORCA STARTUP CALCULATIONS
                           -- RI-GTO INTEGRALS CHOSEN --
------------------------------------------------------------------------------
------------------------------------------------------------------------------
                   ___                                                        
                  /   \      - P O W E R E D   B Y -                         
                 /     \                                                     
                 |  |  |   _    _      __       _____    __    __             
                 |  |  |  | |  | |    /  \     |  _  \  |  |  /  |          
                  \  \/   | |  | |   /    \    | | | |  |  | /  /          
                 / \  \   | |__| |  /  /\  \   | |_| |  |  |/  /          
                |  |  |   |  __  | /  /__\  \  |    /   |      \           
                |  |  |   | |  | | |   __   |  |    \   |  |\   \          
                \     /   | |  | | |  |  |  |  | |\  \  |  | \   \       
                 \___/    |_|  |_| |__|  |__|  |_| \__\ |__|  \__/        
                                                                              
                      - O R C A' S   B I G   F R I E N D -                    
                                      &                                       
                       - I N T E G R A L  F E E D E R -                       
                                                                              
 v1 FN, 2020, v2 2021, v3 2022-2024                                           
------------------------------------------------------------------------------


----------------------
SHARK INTEGRAL PACKAGE
----------------------

Number of atoms                             ...     31
Number of basis functions                   ...    861
Number of shells                            ...    313
Maximum angular momentum                    ...      3
Integral batch strategy                     ... SHARK/LIBINT Hybrid
RI-J (if used) integral strategy            ... SPLIT-RIJ (Revised 2003 algorithm where possible)
Printlevel                                  ...      1
Contraction scheme used                     ... SEGMENTED contraction
Prescreening option                         ... SCHWARTZ
   Thresh                                   ... 2.500e-11
   Tcut                                     ... 2.500e-12
   Tpresel                                  ... 2.500e-12 
Coulomb Range Separation                    ... NOT USED
Exchange Range Separation                   ... NOT USED
Multipole approximations                    ... NOT USED
Finite Nucleus Model                        ... NOT USED
CABS basis                                  ... NOT available
Auxiliary Coulomb fitting basis             ... AVAILABLE
   # of basis functions in Aux-J            ...   1367
   # of shells in Aux-J                     ...    425
   Maximum angular momentum in Aux-J        ...      4
Auxiliary J/K fitting basis                 ... NOT available
Auxiliary Correlation fitting basis         ... NOT available
Auxiliary 'external' fitting basis          ... NOT available

Checking pre-screening integrals            ... done (  0.0 sec) Dimension = 313
Check shell pair data                       ... done (  0.0 sec)
Shell pair information
Shell pair cut-off parameter TPreSel        ...   2.5e-12
Total number of shell pairs                 ...     49141
Shell pairs after pre-screening             ...     27192
Total number of primitive shell pairs       ...    159936
Primitive shell pairs kept                  ...     56401
          la=0 lb=0:   5438 shell pairs
          la=1 lb=0:   7571 shell pairs
          la=1 lb=1:   2560 shell pairs
          la=2 lb=0:   3977 shell pairs
          la=2 lb=1:   2845 shell pairs
          la=2 lb=2:    769 shell pairs
          la=3 lb=0:   1804 shell pairs
          la=3 lb=1:   1357 shell pairs
          la=3 lb=2:    701 shell pairs
          la=3 lb=3:    170 shell pairs

Calculating one electron integrals          ... done (  0.0 sec)
Calculating RI/J V-Matrix + Cholesky decomp.... done (  0.1 sec)
Calculating Nuclear repulsion               ... done (  0.0 sec) ENN=   3250.117469041217 Eh

Diagonalization of the overlap matrix:
Smallest eigenvalue                        ... 5.042e-05
Time for diagonalization                   ...    0.143 sec
Threshold for overlap eigenvalues          ... 1.000e-07
Number of eigenvalues below threshold      ... 0
Time for construction of square roots      ...    0.068 sec
Total time needed                          ...    0.220 sec

-------------------
DFT GRID GENERATION
-------------------

General Integration Accuracy     IntAcc      ... 4.388
Radial Grid Type                 RadialGrid  ... OptM3 with GC (2021)
Angular Grid (max. ang.)         AngularGrid ... 4 (Lebedev-302)
Angular grid pruning method      GridPruning ... 4 (adaptive)
Weight generation scheme         WeightScheme... mBecke (2022)
Basis function cutoff            BFCut       ... 1.0000e-11
Integration weight cutoff        WCut        ... 1.0000e-14
Partially contracted basis set               ... off
Rotationally invariant grid construction     ... off
Angular grids for H and He will be reduced by one unit

Total number of grid points                  ...   176704
Total number of batches                      ...     2775
Average number of points per batch           ...       63
Average number of grid points per atom       ...     5700

--------------------
COSX GRID GENERATION
--------------------

GRIDX 1
-------
General Integration Accuracy     IntAcc      ... 3.816
Radial Grid Type                 RadialGrid  ... OptM3 with GC (2021)
Angular Grid (max. ang.)         AngularGrid ... 1 (Lebedev-50)
Angular grid pruning method      GridPruning ... 4 (adaptive)
Weight generation scheme         WeightScheme... mBecke (2022)
Basis function cutoff            BFCut       ... 1.0000e-11
Integration weight cutoff        WCut        ... 1.0000e-14
Partially contracted basis set               ... on
Rotationally invariant grid construction     ... off
Angular grids for H and He will be reduced by one unit

Total number of grid points                  ...    22295
Total number of batches                      ...      187
Average number of points per batch           ...      119
Average number of grid points per atom       ...      719
UseSFitting                                  ... on

GRIDX 2
-------
General Integration Accuracy     IntAcc      ... 4.020
Radial Grid Type                 RadialGrid  ... OptM3 with GC (2021)
Angular Grid (max. ang.)         AngularGrid ... 2 (Lebedev-110)
Angular grid pruning method      GridPruning ... 4 (adaptive)
Weight generation scheme         WeightScheme... mBecke (2022)
Basis function cutoff            BFCut       ... 1.0000e-11
Integration weight cutoff        WCut        ... 1.0000e-14
Partially contracted basis set               ... on
Rotationally invariant grid construction     ... off
Angular grids for H and He will be reduced by one unit

Total number of grid points                  ...    51718
Total number of batches                      ...      420
Average number of points per batch           ...      123
Average number of grid points per atom       ...     1668
UseSFitting                                  ... on

GRIDX 3
-------
General Integration Accuracy     IntAcc      ... 4.338
Radial Grid Type                 RadialGrid  ... OptM3 with GC (2021)
Angular Grid (max. ang.)         AngularGrid ... 3 (Lebedev-194)
Angular grid pruning method      GridPruning ... 4 (adaptive)
Weight generation scheme         WeightScheme... mBecke (2022)
Basis function cutoff            BFCut       ... 1.0000e-11
Integration weight cutoff        WCut        ... 1.0000e-14
Partially contracted basis set               ... on
Rotationally invariant grid construction     ... off
Angular grids for H and He will be reduced by one unit

Total number of grid points                  ...   114352
Total number of batches                      ...      907
Average number of points per batch           ...      126
Average number of grid points per atom       ...     3689
UseSFitting                                  ... on
Initializing property integral containers    ... done (  0.0 sec)

SHARK setup successfully completed in   3.6 seconds

Maximum memory used throughout the entire STARTUP-calculation: 68.0 MB


           ************************************************************
           *        Program running with 20 parallel MPI-processes    *
           *              working on a common directory               *
           ************************************************************
-------------------------------------------------------------------------------
                                 ORCA GUESS
                   Start orbitals & Density for SCF / CASSCF
-------------------------------------------------------------------------------

------------
SCF SETTINGS
------------
Hamiltonian:
 Density Functional     Method          .... DFT(GTOs)
 Exchange Functional    Exchange        .... B88
   X-Alpha parameter    XAlpha          ....  0.666667
   Becke's b parameter  XBeta           ....  0.004200
 Correlation Functional Correlation     .... LYP
 LDA part of GGA corr.  LDAOpt          .... VWN-5
 Gradients option       PostSCFGGA      .... off
 Hybrid DFT is turned on
   Fraction HF Exchange ScalHFX         ....  0.200000
   Scaling of DF-GGA-X  ScalDFX         ....  0.720000
   Scaling of DF-GGA-C  ScalDFC         ....  0.810000
   Scaling of DF-LDA-C  ScalLDAC        ....  1.000000
   Perturbative correction              ....  0.000000
   NL short-range parameter             ....  4.800000
 RI-approximation to the Coulomb term is turned on
   Number of AuxJ basis functions       .... 1367
   RIJ-COSX (HFX calculated with COS-X)).... on


General Settings:
 Integral files         IntName         .... rf_mecn_2H2O_opt_B3L_sw_003
 Hartree-Fock type      HFTyp           .... RHF
 Total Charge           Charge          ....   -1
 Multiplicity           Mult            ....    1
 Number of Electrons    NEL             ....  220
 Basis Dimension        Dim             ....  861
 Nuclear Repulsion      ENuc            ....   3250.1174690412 Eh

Convergence Acceleration:
 AO-DIIS                CNVDIIS         .... on
   Start iteration      DIISMaxIt       ....     0
   Startup error        DIISStart       ....  0.200000
   # of expansion vecs  DIISMaxEq       ....     5
   Bias factor          DIISBfac        ....   1.050
   Max. coefficient     DIISMaxC        ....  10.000
 MO-DIIS                CNVKDIIS        .... off
 Trust-Rad. Augm. Hess. CNVTRAH         .... auto
   Auto Start mean grad. ratio tolernc. ....  1.125000
   Auto Start start iteration           ....    50
   Auto Start num. interpolation iter.  ....    10
   Max. Number of Micro iterations      ....    24
   Max. Number of Macro iterations      .... Maxiter - #DIIS iter
   Number of Davidson start vectors     ....     2
   Converg. threshold    (grad. norm)   ....   1.000e-05
   Grad. Scal. Fac. for Micro threshold ....   0.100
   Minimum threshold for Micro iter.    ....   1.000e-02
   NR start threshold (gradient norm)   ....   1.000e-04
   Initial trust radius                 ....   0.400
   Minimum AH scaling param. (alpha)    ....   1.000
   Maximum AH scaling param. (alpha)    .... 1000.000
   Quad. conv. algorithm                .... NR
   White noise on init. David. guess    .... on
   Maximum white noise                  ....   0.010
   Pseudo random numbers                .... off
   Inactive MOs                         .... canonical
   Orbital update algorithm             .... Taylor
   Preconditioner                       .... Diag
   Full preconditioner red. dimension   ....   250
 SOSCF                  CNVSOSCF        .... on
   Start iteration      SOSCFMaxIt      ....   150
   Startup grad/error   SOSCFStart      ....  0.001000
   Hessian update       SOSCFHessUp     .... L-BFGS
 Level Shifting         CNVShift        .... on
   Level shift para.    LevelShift      ....    0.2500
   Turn off err/grad.   ShiftErr        ....    0.0000
 Zerner damping         CNVZerner       .... off
 Static damping         CNVDamp         .... on
   Fraction old density DampFac         ....    0.8500
   Max. Damping (<1)    DampMax         ....    0.9800
   Min. Damping (>=0)   DampMin         ....    0.0000
   Turn off err/grad.   DampErr         ....    0.0300

SCF Procedure:
 Maximum # iterations   MaxIter         ....  1500
 SCF integral mode      SCFMode         .... Direct
   Integral package                     .... SHARK and LIBINT hybrid scheme
 Reset frequency        DirectResetFreq ....    20
 Integral Threshold     Thresh          ....  2.500e-11 Eh
 Primitive CutOff       TCut            ....  2.500e-12 Eh

Convergence Tolerance:
 Convergence Check Mode ConvCheckMode   .... Total+1el-Energy
 Convergence forced     ConvForced      .... 0
 Energy Change          TolE            ....  1.000e-08 Eh
 1-El. energy change                    ....  1.000e-05 Eh
 Orbital Gradient       TolG            ....  1.000e-05
 Orbital Rotation angle TolX            ....  1.000e-05
 DIIS Error             TolErr          ....  5.000e-07

------------------------------
INITIAL GUESS: MODEL POTENTIAL
------------------------------
Loading Hartree-Fock densities                     ... done
Calculating cut-offs                               ... done
Initializing the effective Hamiltonian             ... done
Setting up the integral package (SHARK)            ... done
Starting the Coulomb interaction                   ... done (   0.2 sec)
Making the grid                                    ... done (   0.5 sec)
Mapping shells                                     ... done
Starting the XC term evaluation                    ... done (   0.1 sec)
  promolecular density results
     # of electrons  =    218.998411492
     EX              =   -226.003293796
     EC              =     -8.191948660
     EX+EC           =   -234.195242456
Transforming the Hamiltonian                       ... done (   0.1 sec)
Diagonalizing the Hamiltonian                      ... done (   0.2 sec)
Back transforming the eigenvectors                 ... done (   0.0 sec)
Now organizing SCF variables                       ... done
                      ------------------
                      INITIAL GUESS DONE (   1.2 sec)
                      ------------------
             **** ENERGY FILE WAS UPDATED (rf_mecn_2H2O_opt_B3L_sw_003.en.tmp) ****
Finished Guess after   1.8 sec
Maximum memory used throughout the entire GUESS-calculation: 56.2 MB


           ************************************************************
           *        Program running with 20 parallel MPI-processes    *
           *              working on a common directory               *
           ************************************************************

-------------------------------------------------------------------------------------------
                                      ORCA LEAN-SCF
                              memory conserving SCF solver
-------------------------------------------------------------------------------------------

--------------------
CPCM SOLVATION MODEL
--------------------
CPCM parameters:
  Epsilon                                         ...      35.6880
  Refrac                                          ...       1.3442
  Rsolv                                           ...       1.3000
  Surface type                                    ... GAUSSIAN VDW
  Discretization scheme                           ... Constant charge density
    Threshold for H atoms                         ...       5.0000 (charges/Ang^2)
    Threshold for non-H atoms                     ...       5.0000 (charges/Ang^2)
  Epsilon function type                           ...         CPCM
Solvent:                                          ... ACETONITRILE
SMD-CDS solvent descriptors:
  Soln                                            ...       1.3442
  Soln25                                          ...       1.3416
  Sola                                            ...       0.0700
  Solb                                            ...       0.3200
  Solg                                            ...      41.2500
  Solc                                            ...       0.0000
  Solh                                            ...       0.0000
Radii:
  Scheme                                          ... Element-dependent radii
  Radius for C  used is    3.4960 Bohr (=   1.8500 Ang.)
  Radius for F  used is    3.2692 Bohr (=   1.7300 Ang.)
  Radius for O  used is    4.0969 Bohr (=   2.1680 Ang.)
  Radius for H  used is    2.2677 Bohr (=   1.2000 Ang.)
Calculating surface                               ...        done! (  0.0s)
Cavity surface points                             ...         2638
Cavity Volume                                     ...    2625.5818
Cavity Surface-area                               ...    1382.6254
Calculating surface distance matrix               ...        done! (  0.1s)
Performing Cholesky decomposition & store         ...        done! (  0.1s)
Overall time for CPCM initialization              ...                 0.2s

----------------------------------------D-I-I-S--------------------------------------------
Iteration    Energy (Eh)           Delta-E    RMSDP     MaxDP     DIISErr   Damp  Time(sec)
-------------------------------------------------------------------------------------------
               ***  Starting incremental Fock matrix formation  ***
    1    -2105.2942887247104409     0.00e+00  5.27e-04  8.01e-02  3.48e-01  0.850   6.8
Warning: op=0 Small HOMO/LUMO gap (   0.090) - skipping pre-diagonalization
         Will do a full diagonalization
    2    -2105.5200549239330030    -2.26e-01  6.80e-04  1.63e-01  2.44e-01  0.850   4.2
                               ***Turning on AO-DIIS***
    3    -2105.6449155452860396    -1.25e-01  3.37e-04  7.65e-02  1.51e-01  0.850   3.8
    4    -2105.7203855868770006    -7.55e-02  1.76e-04  3.14e-02  1.14e-01  0.850   3.7
    5    -2105.7741287621261108    -5.37e-02  1.06e-04  1.11e-02  9.37e-02  0.850   3.7
    6    -2105.8165376383199145    -4.24e-02  7.75e-05  5.24e-03  7.94e-02  0.850   3.5
    7    -2105.8515543738844826    -3.50e-02  6.56e-05  5.05e-03  6.79e-02  0.850   3.3
    8    -2105.8808762816738636    -2.93e-02  5.72e-05  4.49e-03  5.74e-02  0.850   3.4
    9    -2105.9052589002772038    -2.44e-02  4.87e-05  3.82e-03  4.79e-02  0.850   3.3
   10    -2105.9254767559900756    -2.02e-02  4.09e-05  3.22e-03  3.97e-02  0.850   3.3
   11    -2105.9422950211524039    -1.68e-02  3.42e-05  2.74e-03  3.31e-02  0.850   3.3
   12    -2105.9563485549056168    -1.41e-02  2.87e-05  2.36e-03  2.77e-02  0.850   3.1
   13    -2105.9681340149395510    -1.18e-02  1.61e-04  1.36e-02  2.32e-02  0.000   3.1
   14    -2106.0324284449675361    -6.43e-02  1.26e-05  2.49e-03  2.24e-03  0.000   3.5
                              *** Initializing SOSCF ***
---------------------------------------S-O-S-C-F--------------------------------------
Iteration    Energy (Eh)           Delta-E    RMSDP     MaxDP     MaxGrad    Time(sec)
--------------------------------------------------------------------------------------
   15    -2106.0324570311636307    -2.86e-05  6.56e-06  1.43e-03  4.08e-04     3.3
               *** Restarting incremental Fock matrix formation ***
   16    -2106.0324061738533601     5.09e-05  6.13e-06  7.19e-04  6.37e-05     6.6
   17    -2106.0324059748122636     1.99e-07  1.27e-06  1.01e-04  1.07e-04     4.0
   18    -2106.0324064535857360    -4.79e-07  7.75e-07  1.76e-04  9.83e-06     3.3
   19    -2106.0324064635201466    -9.93e-09  3.45e-07  7.00e-05  1.42e-05     3.1
                 **** Energy Check signals convergence ****

               *****************************************************
               *                     SUCCESS                       *
               *           SCF CONVERGED AFTER  19 CYCLES          *
               *****************************************************

Recomputing exchange energy using gridx3       ... done (    9.121 sec)
Old exchange energy                            :    -45.421276063 Eh
New exchange energy                            :    -45.421257492 Eh
Exchange energy change after final integration :      0.000018571 Eh
Total energy after final integration           :  -2106.032387893 Eh

SMD CDS free energy correction energy :                 2.87112     Kcal/mol
Total Energy after SMD CDS correction =             -2106.027812465 Eh
             **** ENERGY FILE WAS UPDATED (rf_mecn_2H2O_opt_B3L_sw_003.en.tmp) ****

----------------
TOTAL SCF ENERGY
----------------

Total Energy       :      -2106.02781246485438 Eh          -57307.93026 eV

Components:
Nuclear Repulsion  :       3250.11746904121674 Eh           88440.19255 eV
Electronic Energy  :      -5356.07359273921884 Eh         -145746.17205 eV
One Electron Energy:      -9424.21687303713406 Eh         -256445.97858 eV
Two Electron Energy:       4068.14328029791523 Eh          110699.80653 eV
CPCM Dielectric    :         -0.07628276551808 Eh              -2.07576 eV
SMD CDS (Gcds)     :          0.00457542783860 Eh               0.12450 eV

Virial components:
Potential Energy   :      -4205.46556059899467 Eh         -114436.53574 eV
Kinetic Energy     :       2099.43774813414029 Eh           57128.60549 eV
Virial Ratio       :          2.00313896629541

DFT components:
N(Alpha)           :      109.999960466109 electrons
N(Beta)            :      109.999960466109 electrons
N(Total)           :      219.999920932217 electrons
E(X)               :     -180.991439152976 Eh       
E(C)               :       -9.620105939972 Eh       
E(XC)              :     -190.611545092948 Eh       

CPCM Solvation Model Properties:
Surface-charge          :          0.98978260460014
Corrected charge        :          1.00000000000000
Outlying charge corr.   :          0.00000508050478 Eh               0.00014 eV
Free-energy (cav+disp)  :          0.00457542783860 Eh               0.12450 eV

---------------
SCF CONVERGENCE
---------------

  Last Energy change         ...    9.9344e-09  Tolerance :   1.0000e-08
  Last MAX-Density change    ...    6.9960e-05  Tolerance :   1.0000e-07
  Last RMS-Density change    ...    3.4534e-07  Tolerance :   5.0000e-09
  Last DIIS Error            ...    4.0778e-04  Tolerance :   5.0000e-07
  Last Orbital Gradient      ...    1.4239e-05  Tolerance :   1.0000e-05
  Last Orbital Rotation      ...    1.7727e-05  Tolerance :   1.0000e-05


----------------
ORBITAL ENERGIES
----------------

  NO   OCC          E(Eh)            E(eV) 
   0   2.0000     -24.743400      -673.3021 
   1   2.0000     -24.742406      -673.2751 
   2   2.0000     -24.742203      -673.2696 
   3   2.0000     -24.742202      -673.2695 
   4   2.0000     -24.741482      -673.2499 
   5   2.0000     -24.740787      -673.2310 
   6   2.0000     -24.740646      -673.2272 
   7   2.0000     -24.739579      -673.1982 
   8   2.0000     -24.739256      -673.1894 
   9   2.0000     -24.734195      -673.0517 
  10   2.0000     -24.734111      -673.0494 
  11   2.0000     -24.724912      -672.7991 
  12   2.0000     -24.724483      -672.7874 
  13   2.0000     -24.704382      -672.2404 
  14   2.0000     -24.703677      -672.2212 
  15   2.0000     -19.096721      -519.6482 
  16   2.0000     -19.096378      -519.6389 
  17   2.0000     -19.081963      -519.2466 
  18   2.0000     -19.079860      -519.1894 
  19   2.0000     -10.455879      -284.5189 
  20   2.0000     -10.401637      -283.0429 
  21   2.0000     -10.400679      -283.0169 
  22   2.0000     -10.398689      -282.9627 
  23   2.0000     -10.391990      -282.7804 
  24   2.0000     -10.378898      -282.4242 
  25   2.0000     -10.346446      -281.5411 
  26   2.0000     -10.273217      -279.5484 
  27   2.0000      -1.358504       -36.9668 
  28   2.0000      -1.335661       -36.3452 
  29   2.0000      -1.319776       -35.9129 
  30   2.0000      -1.311013       -35.6745 
  31   2.0000      -1.307721       -35.5849 
  32   2.0000      -1.297444       -35.3053 
  33   2.0000      -1.272069       -34.6148 
  34   2.0000      -1.270207       -34.5641 
  35   2.0000      -1.263241       -34.3745 
  36   2.0000      -1.261031       -34.3144 
  37   2.0000      -1.255681       -34.1688 
  38   2.0000      -1.251989       -34.0684 
  39   2.0000      -1.248674       -33.9781 
  40   2.0000      -1.238960       -33.7138 
  41   2.0000      -1.213006       -33.0076 
  42   2.0000      -1.046628       -28.4802 
  43   2.0000      -0.984744       -26.7962 
  44   2.0000      -0.983623       -26.7657 
  45   2.0000      -0.966600       -26.3025 
  46   2.0000      -0.848347       -23.0847 
  47   2.0000      -0.827094       -22.5064 
  48   2.0000      -0.798730       -21.7345 
  49   2.0000      -0.761259       -20.7149 
  50   2.0000      -0.718917       -19.5627 
  51   2.0000      -0.690710       -18.7952 
  52   2.0000      -0.674107       -18.3434 
  53   2.0000      -0.653832       -17.7917 
  54   2.0000      -0.648853       -17.6562 
  55   2.0000      -0.640556       -17.4304 
  56   2.0000      -0.632775       -17.2187 
  57   2.0000      -0.628730       -17.1086 
  58   2.0000      -0.626932       -17.0597 
  59   2.0000      -0.614279       -16.7154 
  60   2.0000      -0.610955       -16.6249 
  61   2.0000      -0.607723       -16.5370 
  62   2.0000      -0.599283       -16.3073 
  63   2.0000      -0.588312       -16.0088 
  64   2.0000      -0.586001       -15.9459 
  65   2.0000      -0.579721       -15.7750 
  66   2.0000      -0.574324       -15.6282 
  67   2.0000      -0.557646       -15.1743 
  68   2.0000      -0.519229       -14.1289 
  69   2.0000      -0.515179       -14.0187 
  70   2.0000      -0.513970       -13.9858 
  71   2.0000      -0.509698       -13.8696 
  72   2.0000      -0.506959       -13.7950 
  73   2.0000      -0.505367       -13.7517 
  74   2.0000      -0.501089       -13.6353 
  75   2.0000      -0.497744       -13.5443 
  76   2.0000      -0.494056       -13.4439 
  77   2.0000      -0.488860       -13.3026 
  78   2.0000      -0.484422       -13.1818 
  79   2.0000      -0.481904       -13.1133 
  80   2.0000      -0.478560       -13.0223 
  81   2.0000      -0.473380       -12.8813 
  82   2.0000      -0.471865       -12.8401 
  83   2.0000      -0.466611       -12.6971 
  84   2.0000      -0.462488       -12.5849 
  85   2.0000      -0.460644       -12.5348 
  86   2.0000      -0.452832       -12.3222 
  87   2.0000      -0.452084       -12.3018 
  88   2.0000      -0.449043       -12.2191 
  89   2.0000      -0.445260       -12.1161 
  90   2.0000      -0.443470       -12.0674 
  91   2.0000      -0.441324       -12.0090 
  92   2.0000      -0.440032       -11.9739 
  93   2.0000      -0.437066       -11.8932 
  94   2.0000      -0.435687       -11.8557 
  95   2.0000      -0.431552       -11.7431 
  96   2.0000      -0.426225       -11.5982 
  97   2.0000      -0.418535       -11.3889 
  98   2.0000      -0.417828       -11.3697 
  99   2.0000      -0.403285       -10.9740 
 100   2.0000      -0.401607       -10.9283 
 101   2.0000      -0.373373       -10.1600 
 102   2.0000      -0.366805        -9.9813 
 103   2.0000      -0.363714        -9.8972 
 104   2.0000      -0.340636        -9.2692 
 105   2.0000      -0.293616        -7.9897 
 106   2.0000      -0.292545        -7.9606 
 107   2.0000      -0.271542        -7.3890 
 108   2.0000      -0.261829        -7.1247 
 109   2.0000      -0.251441        -6.8421 
 110   0.0000      -0.000399        -0.0109 
 111   0.0000       0.011677         0.3178 
 112   0.0000       0.025820         0.7026 
 113   0.0000       0.053792         1.4638 
 114   0.0000       0.055997         1.5238 
 115   0.0000       0.057661         1.5690 
 116   0.0000       0.066291         1.8039 
 117   0.0000       0.097500         2.6531 
 118   0.0000       0.105526         2.8715 
 119   0.0000       0.108142         2.9427 
 120   0.0000       0.116667         3.1747 
*Only the first 10 virtual orbitals were printed.

                    ********************************
                    * MULLIKEN POPULATION ANALYSIS *
                    ********************************

-----------------------
MULLIKEN ATOMIC CHARGES
-----------------------
   0 C :    0.469937
   1 C :    0.316851
   2 C :    0.307520
   3 C :    0.326649
   4 C :    0.328817
   5 C :    0.348522
   6 C :    0.309469
   7 C :    0.211126
   8 F :   -0.153826
   9 F :   -0.151179
  10 F :   -0.154130
  11 F :   -0.163685
  12 F :   -0.160991
  13 F :   -0.165655
  14 F :   -0.167201
  15 F :   -0.166721
  16 F :   -0.168909
  17 F :   -0.171729
  18 F :   -0.174151
  19 F :   -0.187860
  20 F :   -0.182323
  21 F :   -0.211594
  22 F :   -0.205897
  23 O :   -0.476374
  24 O :   -0.498621
  25 O :   -0.720083
  26 H :    0.334263
  27 H :    0.357660
  28 H :    0.356146
  29 O :   -0.721316
  30 H :    0.335283
Sum of atomic charges:   -1.0000000

--------------------------------
MULLIKEN REDUCED ORBITAL CHARGES
--------------------------------
  0 C s       :     3.019216  s :     3.019216
      pz      :     0.673578  p :     2.119001
      px      :     0.668920
      py      :     0.776503
      dz2     :     0.064454  d :     0.350259
      dxz     :     0.078410
      dyz     :     0.073706
      dx2y2   :     0.068849
      dxy     :     0.064839
      f0      :     0.006552  f :     0.041587
      f+1     :     0.008968
      f-1     :     0.005051
      f+2     :     0.003197
      f-2     :     0.006064
      f+3     :     0.004779
      f-3     :     0.006978

  1 C s       :     3.122478  s :     3.122478
      pz      :     0.633373  p :     2.246375
      px      :     0.722848
      py      :     0.890154
      dz2     :     0.070558  d :     0.285276
      dxz     :     0.061790
      dyz     :     0.057159
      dx2y2   :     0.039574
      dxy     :     0.056195
      f0      :     0.005220  f :     0.029021
      f+1     :     0.006238
      f-1     :     0.002978
      f+2     :     0.004719
      f-2     :     0.004395
      f+3     :     0.002830
      f-3     :     0.002640

  2 C s       :     3.147382  s :     3.147382
      pz      :     0.590903  p :     2.224184
      px      :     0.719484
      py      :     0.913797
      dz2     :     0.077618  d :     0.291922
      dxz     :     0.054430
      dyz     :     0.066524
      dx2y2   :     0.034039
      dxy     :     0.059310
      f0      :     0.006376  f :     0.028992
      f+1     :     0.004688
      f-1     :     0.003430
      f+2     :     0.004984
      f-2     :     0.005245
      f+3     :     0.002231
      f-3     :     0.002037

  3 C s       :     3.143605  s :     3.143605
      pz      :     0.624885  p :     2.209540
      px      :     0.707755
      py      :     0.876900
      dz2     :     0.074763  d :     0.291235
      dxz     :     0.061486
      dyz     :     0.056496
      dx2y2   :     0.040772
      dxy     :     0.057718
      f0      :     0.005410  f :     0.028971
      f+1     :     0.006078
      f-1     :     0.002918
      f+2     :     0.004717
      f-2     :     0.004599
      f+3     :     0.002639
      f-3     :     0.002609

  4 C s       :     3.147035  s :     3.147035
      pz      :     0.612862  p :     2.207974
      px      :     0.688792
      py      :     0.906320
      dz2     :     0.061203  d :     0.287402
      dxz     :     0.067998
      dyz     :     0.062141
      dx2y2   :     0.038087
      dxy     :     0.057972
      f0      :     0.004416  f :     0.028772
      f+1     :     0.007823
      f-1     :     0.003853
      f+2     :     0.003070
      f-2     :     0.003488
      f+3     :     0.002412
      f-3     :     0.003710

  5 C s       :     3.131229  s :     3.131229
      pz      :     0.673683  p :     2.208111
      px      :     0.648429
      py      :     0.885999
      dz2     :     0.056137  d :     0.283484
      dxz     :     0.073872
      dyz     :     0.048670
      dx2y2   :     0.044275
      dxy     :     0.060530
      f0      :     0.005692  f :     0.028653
      f+1     :     0.005531
      f-1     :     0.003868
      f+2     :     0.004055
      f-2     :     0.002014
      f+3     :     0.002887
      f-3     :     0.004606

  6 C s       :     3.150600  s :     3.150600
      pz      :     0.669641  p :     2.259253
      px      :     0.619675
      py      :     0.969937
      dz2     :     0.043216  d :     0.253769
      dxz     :     0.060357
      dyz     :     0.048171
      dx2y2   :     0.046755
      dxy     :     0.055271
      f0      :     0.005671  f :     0.026908
      f+1     :     0.003529
      f-1     :     0.003498
      f+2     :     0.004201
      f-2     :     0.002390
      f+3     :     0.003130
      f-3     :     0.004490

  7 C s       :     3.082143  s :     3.082143
      pz      :     0.805347  p :     2.435800
      px      :     0.741264
      py      :     0.889189
      dz2     :     0.012002  d :     0.244714
      dxz     :     0.069267
      dyz     :     0.016595
      dx2y2   :     0.072098
      dxy     :     0.074751
      f0      :     0.002575  f :     0.026217
      f+1     :     0.002408
      f-1     :     0.001162
      f+2     :     0.002376
      f-2     :     0.002878
      f+3     :     0.007388
      f-3     :     0.007430

  8 F s       :     3.910723  s :     3.910723
      pz      :     1.803248  p :     5.225296
      px      :     1.551393
      py      :     1.870655
      dz2     :     0.002290  d :     0.017025
      dxz     :     0.005529
      dyz     :     0.001048
      dx2y2   :     0.004562
      dxy     :     0.003596
      f0      :     0.000089  f :     0.000782
      f+1     :     0.000135
      f-1     :     0.000014
      f+2     :     0.000185
      f-2     :     0.000098
      f+3     :     0.000131
      f-3     :     0.000131

  9 F s       :     3.909053  s :     3.909053
      pz      :     1.470942  p :     5.224143
      px      :     1.874424
      py      :     1.878777
      dz2     :     0.008297  d :     0.017188
      dxz     :     0.003865
      dyz     :     0.004251
      dx2y2   :     0.000321
      dxy     :     0.000454
      f0      :     0.000329  f :     0.000796
      f+1     :     0.000189
      f-1     :     0.000205
      f+2     :     0.000027
      f-2     :     0.000041
      f+3     :     0.000003
      f-3     :     0.000002

 10 F s       :     3.910052  s :     3.910052
      pz      :     1.892395  p :     5.226355
      px      :     1.739591
      py      :     1.594369
      dz2     :     0.002470  d :     0.016941
      dxz     :     0.001352
      dyz     :     0.002374
      dx2y2   :     0.004048
      dxy     :     0.006696
      f0      :     0.000066  f :     0.000783
      f+1     :     0.000066
      f-1     :     0.000109
      f+2     :     0.000016
      f-2     :     0.000102
      f+3     :     0.000246
      f-3     :     0.000179

 11 F s       :     3.914484  s :     3.914484
      pz      :     1.748204  p :     5.231535
      px      :     1.612963
      py      :     1.870368
      dz2     :     0.002433  d :     0.016930
      dxz     :     0.005984
      dyz     :     0.001798
      dx2y2   :     0.003353
      dxy     :     0.003363
      f0      :     0.000079  f :     0.000736
      f+1     :     0.000152
      f-1     :     0.000026
      f+2     :     0.000171
      f-2     :     0.000140
      f+3     :     0.000075
      f-3     :     0.000095

 12 F s       :     3.912097  s :     3.912097
      pz      :     1.542985  p :     5.231096
      px      :     1.833027
      py      :     1.855084
      dz2     :     0.006043  d :     0.017049
      dxz     :     0.004427
      dyz     :     0.004476
      dx2y2   :     0.000912
      dxy     :     0.001193
      f0      :     0.000182  f :     0.000749
      f+1     :     0.000190
      f-1     :     0.000184
      f+2     :     0.000069
      f-2     :     0.000105
      f+3     :     0.000010
      f-3     :     0.000008

 13 F s       :     3.914803  s :     3.914803
      pz      :     1.628807  p :     5.233051
      px      :     1.721291
      py      :     1.882953
      dz2     :     0.003982  d :     0.017062
      dxz     :     0.006236
      dyz     :     0.002872
      dx2y2   :     0.001865
      dxy     :     0.002106
      f0      :     0.000101  f :     0.000739
      f+1     :     0.000235
      f-1     :     0.000067
      f+2     :     0.000136
      f-2     :     0.000138
      f+3     :     0.000028
      f-3     :     0.000034

 14 F s       :     3.915138  s :     3.915138
      pz      :     1.590079  p :     5.234380
      px      :     1.745024
      py      :     1.899277
      dz2     :     0.004742  d :     0.016950
      dxz     :     0.006223
      dyz     :     0.002847
      dx2y2   :     0.001509
      dxy     :     0.001629
      f0      :     0.000125  f :     0.000733
      f+1     :     0.000267
      f-1     :     0.000069
      f+2     :     0.000123
      f-2     :     0.000110
      f+3     :     0.000018
      f-3     :     0.000022

 15 F s       :     3.914312  s :     3.914312
      pz      :     1.552836  p :     5.234609
      px      :     1.823531
      py      :     1.858242
      dz2     :     0.005780  d :     0.017059
      dxz     :     0.004617
      dyz     :     0.004353
      dx2y2   :     0.000998
      dxy     :     0.001311
      f0      :     0.000168  f :     0.000741
      f+1     :     0.000197
      f-1     :     0.000169
      f+2     :     0.000073
      f-2     :     0.000112
      f+3     :     0.000013
      f-3     :     0.000010

 16 F s       :     3.914649  s :     3.914649
      pz      :     1.729985  p :     5.236629
      px      :     1.627118
      py      :     1.879526
      dz2     :     0.002640  d :     0.016899
      dxz     :     0.006216
      dyz     :     0.001908
      dx2y2   :     0.003084
      dxy     :     0.003050
      f0      :     0.000078  f :     0.000732
      f+1     :     0.000170
      f-1     :     0.000027
      f+2     :     0.000175
      f-2     :     0.000137
      f+3     :     0.000064
      f-3     :     0.000080

 17 F s       :     3.913300  s :     3.913300
      pz      :     1.482648  p :     5.240803
      px      :     1.881925
      py      :     1.876230
      dz2     :     0.007847  d :     0.016891
      dxz     :     0.003477
      dyz     :     0.004627
      dx2y2   :     0.000476
      dxy     :     0.000464
      f0      :     0.000296  f :     0.000735
      f+1     :     0.000151
      f-1     :     0.000211
      f+2     :     0.000036
      f-2     :     0.000036
      f+3     :     0.000003
      f-3     :     0.000002

 18 F s       :     3.913887  s :     3.913887
      pz      :     1.801317  p :     5.242808
      px      :     1.534634
      py      :     1.906857
      dz2     :     0.002096  d :     0.016731
      dxz     :     0.005625
      dyz     :     0.000884
      dx2y2   :     0.004824
      dxy     :     0.003302
      f0      :     0.000081  f :     0.000725
      f+1     :     0.000131
      f-1     :     0.000003
      f+2     :     0.000201
      f-2     :     0.000069
      f+3     :     0.000135
      f-3     :     0.000105

 19 F s       :     3.913909  s :     3.913909
      pz      :     1.498827  p :     5.256770
      px      :     1.886224
      py      :     1.871719
      dz2     :     0.007312  d :     0.016461
      dxz     :     0.003280
      dyz     :     0.004748
      dx2y2   :     0.000629
      dxy     :     0.000492
      f0      :     0.000263  f :     0.000720
      f+1     :     0.000140
      f-1     :     0.000217
      f+2     :     0.000049
      f-2     :     0.000043
      f+3     :     0.000003
      f-3     :     0.000004

 20 F s       :     3.915518  s :     3.915518
      pz      :     1.884208  p :     5.249437
      px      :     1.462954
      py      :     1.902275
      dz2     :     0.002294  d :     0.016641
      dxz     :     0.003771
      dyz     :     0.000251
      dx2y2   :     0.006296
      dxy     :     0.004029
      f0      :     0.000067  f :     0.000727
      f+1     :     0.000136
      f-1     :     0.000012
      f+2     :     0.000117
      f-2     :     0.000019
      f+3     :     0.000212
      f-3     :     0.000165

 21 F s       :     3.910554  s :     3.910554
      pz      :     1.537273  p :     5.284997
      px      :     1.853049
      py      :     1.894675
      dz2     :     0.006106  d :     0.015370
      dxz     :     0.004221
      dyz     :     0.003653
      dx2y2   :     0.000726
      dxy     :     0.000664
      f0      :     0.000194  f :     0.000672
      f+1     :     0.000205
      f-1     :     0.000137
      f+2     :     0.000061
      f-2     :     0.000062
      f+3     :     0.000007
      f-3     :     0.000005

 22 F s       :     3.909371  s :     3.909371
      pz      :     1.896818  p :     5.280179
      px      :     1.486989
      py      :     1.896372
      dz2     :     0.002171  d :     0.015666
      dxz     :     0.003074
      dyz     :     0.000203
      dx2y2   :     0.006012
      dxy     :     0.004206
      f0      :     0.000052  f :     0.000680
      f+1     :     0.000132
      f-1     :     0.000013
      f+2     :     0.000084
      f-2     :     0.000013
      f+3     :     0.000209
      f-3     :     0.000177

[...]
      pz      :     1.809934  p :     5.159739
      px      :     1.528878
      py      :     1.820928
      dz2     :     0.004032  d :     0.030795
      dxz     :     0.006503
      dyz     :     0.000423
      dx2y2   :     0.012224
      dxy     :     0.007613
      f0      :     0.000148  f :     0.001538
      f+1     :     0.000259
      f-1     :     0.000024
      f+2     :     0.000240
      f-2     :     0.000043
      f+3     :     0.000429
      f-3     :     0.000394

 21 F s       :     3.604127  s :     3.604127
      pz      :     1.647220  p :     5.193362
      px      :     1.715453
      py      :     1.830689
      dz2     :     0.006000  d :     0.029589
      dxz     :     0.011026
      dyz     :     0.005194
      dx2y2   :     0.003484
      dxy     :     0.003885
      f0      :     0.000173  f :     0.001456
      f+1     :     0.000431
      f-1     :     0.000117
      f+2     :     0.000296
      f-2     :     0.000289
      f+3     :     0.000082
      f-3     :     0.000067

 22 F s       :     3.601362  s :     3.601362
      pz      :     1.781194  p :     5.187642
      px      :     1.578773
      py      :     1.827675
      dz2     :     0.003120  d :     0.029833
      dxz     :     0.008301
      dyz     :     0.001327
      dx2y2   :     0.009353
      dxy     :     0.007732
      f0      :     0.000139  f :     0.001467
      f+1     :     0.000222
      f-1     :     0.000009
      f+2     :     0.000300
      f-2     :     0.000152
      f+3     :     0.000326
      f-3     :     0.000319

 23 O s       :     3.412402  s :     3.412402
      pz      :     1.453084  p :     4.544692
      px      :     1.510878
      py      :     1.580730
      dz2     :     0.007739  d :     0.062616
      dxz     :     0.011216
      dyz     :     0.004037
      dx2y2   :     0.017464
      dxy     :     0.022160
      f0      :     0.000471  f :     0.005602
      f+1     :     0.000711
      f-1     :     0.000263
      f+2     :     0.000334
      f-2     :     0.000663
      f+3     :     0.001503
      f-3     :     0.001657

 24 O s       :     3.411240  s :     3.411240
      pz      :     1.459334  p :     4.550754
      px      :     1.483509
      py      :     1.607911
      dz2     :     0.007723  d :     0.062684
      dxz     :     0.013484
      dyz     :     0.001664
      dx2y2   :     0.020320
      dxy     :     0.019494
      f0      :     0.000472  f :     0.005575
      f+1     :     0.000831
      f-1     :     0.000142
      f+2     :     0.000664
      f-2     :     0.000306
      f+3     :     0.001556
      f-3     :     0.001603

 25 O s       :     3.461317  s :     3.461317
      pz      :     1.893163  p :     4.875444
      px      :     1.406539
      py      :     1.575743
      dz2     :     0.005072  d :     0.028201
      dxz     :     0.001422
      dyz     :     0.000705
      dx2y2   :     0.011299
      dxy     :     0.009703
      f0      :     0.000085  f :     0.002240
      f+1     :     0.000424
      f-1     :     0.000382
      f+2     :     0.000125
      f-2     :     0.000038
      f+3     :     0.000945
      f-3     :     0.000241

 26 H s       :     0.682246  s :     0.682246
      pz      :     0.045938  p :     0.161012
      px      :     0.039218
      py      :     0.075856

 27 H s       :     0.678798  s :     0.678798
      pz      :     0.046169  p :     0.181922
      px      :     0.100788
      py      :     0.034965

 28 H s       :     0.678339  s :     0.678339
      pz      :     0.036993  p :     0.182371
      px      :     0.101672
      py      :     0.043706

 29 O s       :     3.461800  s :     3.461800
      pz      :     1.578230  p :     4.874894
      px      :     1.538339
      py      :     1.758325
      dz2     :     0.005808  d :     0.028263
      dxz     :     0.001618
      dyz     :     0.009926
      dx2y2   :     0.006998
      dxy     :     0.003912
      f0      :     0.000127  f :     0.002236
      f+1     :     0.000199
      f-1     :     0.000816
      f+2     :     0.000345
      f-2     :     0.000188
      f+3     :     0.000224
      f-3     :     0.000336

 30 H s       :     0.682579  s :     0.682579
      pz      :     0.068658  p :     0.160999
      px      :     0.034368
      py      :     0.057972



                      *****************************
                      * MAYER POPULATION ANALYSIS *
                      *****************************

  NA   - Mulliken gross atomic population
  ZA   - Total nuclear charge
  QA   - Mulliken gross atomic charge
  VA   - Mayer's total valence
  BVA  - Mayer's bonded valence
  FA   - Mayer's free valence

  ATOM       NA         ZA         QA         VA         BVA        FA
  0 C      5.5239     6.0000     0.4761     4.5142     4.5142     0.0000
  1 C      5.6755     6.0000     0.3245     4.1768     4.1768     0.0000
  2 C      5.6870     6.0000     0.3130     4.1321     4.1321     0.0000
  3 C      5.6682     6.0000     0.3318     4.1610     4.1610     0.0000
  4 C      5.6627     6.0000     0.3373     4.1470     4.1470     0.0000
  5 C      5.6989     6.0000     0.3011     4.0789     4.0789     0.0000
  6 C      5.6509     6.0000     0.3491     3.9079     3.9079     0.0000
  7 C      5.7544     6.0000     0.2456     4.4510     4.4510     0.0000
  8 F      9.1553     9.0000    -0.1553     1.1627     1.1627    -0.0000
  9 F      9.1527     9.0000    -0.1527     1.1664     1.1664     0.0000
 10 F      9.1524     9.0000    -0.1524     1.1679     1.1679     0.0000
 11 F      9.1658     9.0000    -0.1658     1.1540     1.1540     0.0000
 12 F      9.1626     9.0000    -0.1626     1.1549     1.1549    -0.0000
 13 F      9.1682     9.0000    -0.1682     1.1523     1.1523     0.0000
 14 F      9.1676     9.0000    -0.1676     1.1516     1.1516     0.0000
 15 F      9.1690     9.0000    -0.1690     1.1501     1.1501    -0.0000
 16 F      9.1693     9.0000    -0.1693     1.1485     1.1485    -0.0000
 17 F      9.1731     9.0000    -0.1731     1.1435     1.1435     0.0000
 18 F      9.1746     9.0000    -0.1746     1.1407     1.1407    -0.0000
 19 F      9.1866     9.0000    -0.1866     1.1237     1.1237     0.0000
 20 F      9.1810     9.0000    -0.1810     1.1346     1.1346     0.0000
 21 F      9.2082     9.0000    -0.2082     1.0830     1.0830    -0.0000
 22 F      9.2046     9.0000    -0.2046     1.0901     1.0901     0.0000
 23 O      8.4885     8.0000    -0.4885     1.9670     1.9670    -0.0000
 24 O      8.5018     8.0000    -0.5018     1.9499     1.9499     0.0000
 25 O      8.7262     8.0000    -0.7262     1.7359     1.7359     0.0000
 26 H      0.6724     1.0000     0.3276     0.9067     0.9067    -0.0000
 27 H      0.6491     1.0000     0.3509     0.9463     0.9463     0.0000
 28 H      0.6528     1.0000     0.3472     0.9507     0.9507     0.0000
 29 O      8.7247     8.0000    -0.7247     1.7364     1.7364     0.0000
 30 H      0.6722     1.0000     0.3278     0.9068     0.9068     0.0000

  Mayer bond orders larger than 0.100000
B(  0-C ,  1-C ) :   0.9701 B(  0-C ,  8-F ) :   1.1430 B(  0-C ,  9-F ) :   1.1559 
B(  0-C , 10-F ) :   1.1490 B(  1-C ,  2-C ) :   0.9263 B(  1-C , 11-F ) :   1.0873 
B(  1-C , 12-F ) :   1.0974 B(  2-C ,  3-C ) :   0.9346 B(  2-C , 13-F ) :   1.0814 
B(  2-C , 14-F ) :   1.0882 B(  3-C ,  4-C ) :   0.9381 B(  3-C , 15-F ) :   1.0814 
B(  3-C , 16-F ) :   1.0801 B(  4-C ,  5-C ) :   0.9285 B(  4-C , 17-F ) :   1.0785 
B(  4-C , 18-F ) :   1.0727 B(  5-C ,  6-C ) :   0.9078 B(  5-C , 19-F ) :   1.0655 
B(  5-C , 20-F ) :   1.0773 B(  6-C ,  7-C ) :   0.8973 B(  6-C , 21-F ) :   1.0438 
B(  6-C , 22-F ) :   1.0445 B(  7-C , 23-O ) :   1.7576 B(  7-C , 24-O ) :   1.7346 
B( 23-O , 28-H ) :   0.1097 B( 24-O , 27-H ) :   0.1049 B( 25-O , 26-H ) :   0.9015 
B( 25-O , 27-H ) :   0.8281 B( 28-H , 29-O ) :   0.8272 B( 29-O , 30-H ) :   0.9014 


-------
TIMINGS
-------

Total SCF time: 0 days 0 hours 0 min 43 sec 

Total time                  ....      43.919 sec
Sum of individual times     ....      42.821 sec  ( 97.5%)

SCF preparation             ....       1.306 sec  (  3.0%)
Fock matrix formation       ....      38.130 sec  ( 86.8%)
  Startup                   ....       0.097 sec  (  0.3% of F)
  Split-RI-J                ....       2.751 sec  (  7.2% of F)
  Chain of spheres X        ....      28.037 sec  ( 73.5% of F)
  XC integration            ....       4.454 sec  ( 11.7% of F)
    XC Preparation          ....       0.000 sec  (  0.0% of XC)
    Basis function eval.    ....       0.541 sec  ( 12.1% of XC)
    Density eval.           ....       0.597 sec  ( 13.4% of XC)
    XC-Functional eval.     ....       0.038 sec  (  0.8% of XC)
    XC-Potential eval.      ....       0.619 sec  ( 13.9% of XC)
  CPCM terms                ....       2.511 sec  (  6.6% of F)
Diagonalization             ....       0.000 sec  (  0.0%)
Density matrix formation    ....       0.362 sec  (  0.8%)
Total Energy calculation    ....       0.181 sec  (  0.4%)
Population analysis         ....       0.351 sec  (  0.8%)
Orbital Transformation      ....       0.293 sec  (  0.7%)
Orbital Orthonormalization  ....       0.000 sec  (  0.0%)
DIIS solution               ....       0.398 sec  (  0.9%)
SOSCF solution              ....       1.801 sec  (  4.1%)
Finished LeanSCF after  44.3 sec

Maximum memory used throughout the entire LEANSCF-calculation: 116.6 MB


-------------------------------------------------------------------------------
                          DFT DISPERSION CORRECTION                            
                                                                               
                              DFTD3 V3.1  Rev 1                                
                          USING Becke-Johnson damping                          
-------------------------------------------------------------------------------
The B3LYP functional is recognized
Active option DFTDOPT                   ...         4   

molecular C6(AA) [au] = 8951.864296 


            DFT-D V3
 parameters
 s6 scaling factor         :     1.0000 
 a1 scaling factor         :     0.3981 
 s8 scaling factor         :     1.9889 
 a2 scaling factor         :     4.4211 
 ad hoc parameters k1-k3   :    16.0000     1.3333    -4.0000 

 Edisp/kcal,au: -31.516565536195  -0.050224838790 
 E6   /kcal   : -15.244975398 
 E8   /kcal   : -16.271590138 
 % E8         :  51.628690695 

-------------------------   ----------------
Dispersion correction           -0.050224839
-------------------------   ----------------


-------------------------   --------------------
FINAL SINGLE POINT ENERGY     -2106.085300738690
-------------------------   --------------------

                                *** OPTIMIZATION RUN DONE ***



           ************************************************************
           *        Program running with 20 parallel MPI-processes    *
           *              working on a common directory               *
           ************************************************************

------------------------------------------------------------------------------
                              ORCA PROPERTY CALCULATIONS
------------------------------------------------------------------------------

GBWName                                 ... rf_mecn_2H2O_opt_B3L_sw_003.gbw
Number of atoms                         ...     31
Number of basis functions               ...    861
Max core memory                         ...   8000 MB

Electric properties:
Dipole moment                           ... YES
Quadrupole moment                       ...  NO
Static polarizability (Dipole/Dipole)   ...  NO
Static polarizability (Dipole/Quad.)    ...  NO
Static polarizability (Quad./Quad.)     ...  NO
Static polarizability (Velocity)        ...  NO

Atomic electric properties:
Dipole moment                           ...  NO
Quadrupole moment                       ...  NO
Static polarizability                   ...  NO

Choice of electric origin               ... Center of mass
Position of electric origin             ...    13.155839    43.687700     3.219236

General magnetic properties:
Magnetizability                         ...  NO

EPR properties:
g-Tensor (aka g-matrix)                 ...  NO
Zero-Field splitting spin-orbit         ...  NO
Zero-field splitting spin-spin          ...  NO
Hyperfine couplings                     ...  NO (   0 nuclei)
Quadrupole couplings                    ...  NO (   0 nuclei)
Contact density                         ...  NO (   0 nuclei)

NMR properties:
Chemical shifts                         ...  NO (   0 nuclei)
Spin-rotation constants                 ...  NO (   0 nuclei)
Spin-spin couplings                     ...  NO (   0 nuclei,    0 pairs)

Choice of magnetic origin               ... GIAO
Position of magnetic origin             ...     0.000000     0.000000     0.000000

Properties with geometric perturbations:
SCF Hessian                             ...  NO
IR spectrum                             ...  NO
VCD spectrum                            ...  NO
X-ray spectroscopy properties:
SCF XES/XAS/RIXS spectra                ...  NO


-------------
DIPOLE MOMENT
-------------

Method             : SCF
Type of density    : Electron Density
Multiplicity       :   1
Irrep              :   0
Energy             : -2106.0350758998988567 Eh
Relativity type    : 
Basis              : AO
                                X                 Y                 Z
Electronic contribution:      1.848545682      38.544360693       6.374619073
Nuclear contribution   :     -1.669787785     -31.684000562      -4.405487073
                        -----------------------------------------
Total Dipole Moment    :      0.178757898       6.860360131       1.969132000
                        -----------------------------------------
Magnitude (a.u.)       :      7.139606176
Magnitude (Debye)      :     18.147436698



--------------------
Rotational spectrum 
--------------------
 
Rotational constants in cm-1:             0.013012             0.003226             0.002937 
Rotational constants in MHz :           390.100358            96.726807            88.048555 

Dipole components along the rotational axes: 
x,y,z [a.u.] :     7.136915    -0.148764     0.127659 
x,y,z [Debye]:    18.140595    -0.378127     0.324484 

 

Dipole moment calculation done in   0.1 sec 

Maximum memory used throughout the entire PROP-calculation: 63.4 MB

--------------------------------
SUGGESTED CITATIONS FOR THIS RUN
--------------------------------

Below you find a list of papers that are relevant to this ORCA run
We neither can nor want to force you to cite these papers, but we appreciate if you do
You receive ORCA, which is the product of decades of hard work by many enthusiastic individuals, for free
The only thing we kindly ask in return is that you cite our papers,
We deeply appreciate it, if you show your appreciation for ORCA by not just citing the generic ORCA reference.

Please note that relegating all ORCA citations to the supporting information does *not* help us.
SI sections are not indexed - citations you put there will not count into any citation statistics
But we need these citations in order to attract the funding resources that allow us to do what we are doing

Therefore, if you are a happy ORCA user, please consider citing a few of the papers listed below in the main body of your paper

In addition to the list printed below, the program has created the file rf_mecn_2H2O_opt_B3L_sw_003.bibtex that contains the list in bibtex format
You can import this file easily into all common literature databanks and citation aid programs


List of essential papers. We consider these as the minimum necessary citations

  1. Neese,F.
     Software update: the ORCA program system, version 5.0
     WIRES Comput. Molec. Sci., 2022 12(1)e1606
     doi.org/10.1002/wcms.1606

List of papers to cite with high priority. The work reported in these papers was absolutely
necessary for this run to complete.
Our perspective: the developers of density functionals and basis sets usually get cited in chemistry papers
Good! But without the algorithms to do something with them, the functionals or basis sets would not do anything.
Hence, in our opinion, the algorithm design and method developments papers are equally worthy of getting cited

  1. Neese,F.
     An improvement of the resolution of the identity approximation for the formation of the Coulomb matrix
     J. Comp. Chem., 2003 24(14)1740-1747
     doi.org/10.1002/jcc.10318
  2. Neese,F.; Wennmohs,F.; Hansen,A.; Becker,U.
     Efficient, approximate and parallel Hartree-Fock and hybrid DFT calculations. A 'chain-of-spheres' algorithm for the Hartree-Fock exchange
     Chem. Phys., 2009 356(1-3)98-109
     doi.org/10.1016/j.chemphys.2008.10.036
  3. Garcia-Rates,M.; Neese,F.
     Effect of the Solute Cavity on the Solvation Energy and its Derivatives within the Framework of the Gaussian Charge Scheme
     J. Comput. Chem., 2020 41 922-939
     doi.org/10.1002/jcc.26139
  4. Helmich-Paris,B.; de Souza,B.; Neese,F.; Izsák,R.
     An improved chain of spheres for exchange algorithm
     J. Chem. Phys., 2021 155 104109
     doi.org/doi: 10.1063/5.0058766.
  5. Neese,F.
     The SHARK Integral Generation and Digestion System
     J. Comp. Chem., 2022  1-16
     doi.org/10.1002/jcc.26942
  6. Grimme,S.; Antony,J.; Ehrlich,S.; Krieg,H.
     A consistent and accurate ab initio parametrization of density functional dispersion correction (DFT-D) for the 94 elements H-Pu
     J. Chem. Phys., 2010 132 154104
     doi.org/10.1063/1.3382344
  7. Grimme,S.; Ehrlich,S.; Goerigk,L.
     Effect of the damping function in dispersion corrected density functional theory
     J. Comput. Chem., 2011 32(7)1456-1465
     doi.org/10.1002/jcc.21759

List of suggested additional citations. These are papers that are important in the 'surrounding' of 
of this run, or papers that preceded the highly important papers. If you like your results we are grateful for a citation.

  1. Izsak,R.; Neese,F.
     An overlap fitted chain of spheres exchange method
     J. Chem. Phys., 2011 135 144105
     doi.org/10.1063/1.3646921
  2. Izsak,R.; Hansen,A.; Neese,F.
     The resolution of identity and chain of spheres approximations for the LPNO-CCSD singles Fock term
     Molec. Phys., 2012 110 2413-2417
     doi.org/10.1080/00268976.2012.687466
  3. Neese,F.
     The ORCA program system
     WIRES Comput. Molec. Sci., 2012 2(1)73-78
     doi.org/10.1002/wcms.81
  4. Izsak,R.; Neese,F.; Klopper,W.
     Robust fitting techniques in the chain of spheres approximation to the Fock exchange: The role of the complementary space
     J. Chem. Phys., 2013 139 
     doi.org/10.1063/1.4819264
  5. Neese,F.
     Software update: the ORCA program system, version 4.0
     WIRES Comput. Molec. Sci., 2018 8(1)1-6
     doi.org/10.1002/wcms.1327
  6. Neese,F.; Wennmohs,F.; Becker,U.; Riplinger,C.
     The ORCA quantum chemistry program package
     J. Chem. Phys., 2020 152 Art. No. L224108
     doi.org/10.1063/5.0004608

List of optional additional citations

  1. Neese,F.
     Approximate second-order SCF convergence for spin unrestricted wavefunctions
     Chem. Phys. Lett., 2000 325(1-3)93-98
     doi.org/10.1016/s0009-2614(00)00662-x

Timings for individual modules:

Sum of individual times          ...     2945.883 sec (=  49.098 min)
Startup calculation              ...      141.154 sec (=   2.353 min)   4.8 %
SCF iterations                   ...     2068.953 sec (=  34.483 min)  70.2 %
Property calculations            ...        0.827 sec (=   0.014 min)   0.0 %
SCF Gradient evaluation          ...      734.140 sec (=  12.236 min)  24.9 %
Geometry relaxation              ...        0.809 sec (=   0.013 min)   0.0 %
                             ****ORCA TERMINATED NORMALLY****
TOTAL RUN TIME: 0 days 0 hours 49 minutes 28 seconds 109 msec
