
                                 *****************
                                 * O   R   C   A *
                                 *****************

                                            #,                                       
                                            ###                                      
                                            ####                                     
                                            #####                                    
                                            ######                                   
                                           ########,                                 
                                     ,,################,,,,,                         
                               ,,#################################,,                 
                          ,,##########################################,,             
                       ,#########################################, ''#####,          
                    ,#############################################,,   '####,        
                  ,##################################################,,,,####,       
                ,###########''''           ''''###############################       
              ,#####''   ,,,,##########,,,,          '''####'''          '####       
            ,##' ,,,,###########################,,,                        '##       
           ' ,,###''''                  '''############,,,                           
         ,,##''                                '''############,,,,        ,,,,,,###''
      ,#''                                            '''#######################'''  
     '                                                          ''''####''''         
             ,#######,   #######,   ,#######,      ##                                
            ,#'     '#,  ##    ##  ,#'     '#,    #''#        ,####,   ,####,        
            ##       ##  ##   ,#'  ##            #'  '#       #'       #'  '#        
            ##       ##  #######   ##           ,######,      #####,   #    #        
            '#,     ,#'  ##    ##  '#,     ,#' ,#      #,     #,   #   #,  ,#        
             '#######'   ##     ##  '#######'  #'      '#     '####' # '####'        



                #########################################################
                #                        -***-                          #
                #          Department of theory and spectroscopy        #
                #                                                       #
                #                      Frank Neese                      #
                #                                                       #
                #     Directorship, Architecture, Infrastructure        #
                #                    SHARK, DRIVERS                     #
                #        Core code/Algorithms in most modules           #
                #                                                       #
                #        Max Planck Institute fuer Kohlenforschung      #
                #                Kaiser Wilhelm Platz 1                 #
                #                 D-45470 Muelheim/Ruhr                 #
                #                      Germany                          #
                #                                                       #
                #                  All rights reserved                  #
                #                        -***-                          #
                #########################################################


                         Program Version 6.0.1  -  RELEASE   -


 With contributions from (in alphabetic order):
[Max-Planck-Institut fuer Kohlenforschung]                               
  Daniel Aravena         : Magnetic Suceptibility                        
  Michael Atanasov       : Ab Initio Ligand Field Theory (pilot matlab implementation)
  Alexander A. Auer      : GIAO ZORA, VPT2 properties, NMR spectrum      
  Ute Becker             : All parallelization in ORCA, NUMFREQ, NUMCALC 
  Giovanni Bistoni       : ED, misc. LED, open-shell LED, HFLD           
  Martin Brehm           : Molecular dynamics                            
  Dmytro Bykov           : pre 5.0 version of the SCF Hessian            
  Marcos Casanova-Páez   : Triplet and SCS-CIS(D). UHF-(DLPNO)-IP/EA/STEOM-CCSD. UHF-CVS-IP/STEOM-CCSD   
  Vijay G. Chilkuri      : MRCI spin determinant printing, contributions to CSF-ICE 
  Pauline Colinet        : FMM embedding                                 
  Dipayan Datta          : RHF DLPNO-CCSD density                        
  Achintya Kumar Dutta   : EOM-CC, STEOM-CC                              
  Nicolas Foglia         : Exact transition moments, OPA infrastructure, MCD improvements    
  Dmitry Ganyushin       : Spin-Orbit,Spin-Spin,Magnetic field MRCI      
  Miquel Garcia-Rates    : C-PCM and meta-GGA Hessian, CCSD/C-PCM, Gaussian charge scheme 
  Tiago L. C. Gouveia    : GS-ROHF, GS-ROCIS                             
  Yang Guo               : DLPNO-NEVPT2, F12-NEVPT2, CIM, IAO-localization        
  Andreas Hansen         : Spin unrestricted coupled pair/coupled cluster methods 
  Ingolf Harden          : AUTO-CI MPn and infrastructure                
  Benjamin Helmich-Paris : MC-RPA, TRAH-(SCF,CASSCF), AVAS, COSX integrals, SCF dyn. polar. 
  Lee Huntington         : MR-EOM, pCC                                   
  Robert Izsak           : Overlap fitted RIJCOSX, COSX-SCS-MP3, EOM     
  Riya Kayal             : Wick's Theorem for AUTO-CI, AUTO-CI UHF-CCSDT 
  Emily Kempfer          : AUTO-CI, RHF CISDT and CCSDT                  
  Christian Kollmar      : KDIIS, OOCD, Brueckner-CCSD(T), CCSD density, CASPT2, CASPT2-K, improved NEVPT2 
  Axel Koslowski         : Symmetry handling                             
  Simone Kossmann        : meta-GGA functionals, TD-DFT gradient, OOMP2, (MP2 Hessian; deprecated post 5.0) 
  Lucas Lang             : DCDCAS                                        
  Marvin Lechner         : AUTO-CI (C++ implementation), FIC-MRCC        
  Spencer Leger          : CASSCF response                               
  Dagmar Lenk            : GEPOL surface, SMD, ORCA-2-JSON               
  Dimitrios Liakos       : Extrapolation schemes; Compound Job, initial MDCI parallelization 
  Dimitrios Manganas     : Further ROCIS development; embedding schemes. LFT, Crystal Embedding 
  Dimitrios Pantazis     : SARC Basis sets                               
  Anastasios Papadopoulos: AUTO-CI, single reference methods and gradients 
  Taras Petrenko         : pre 6.0 DFT Hessian and TD-DFT gradient, (ASA, deprecated), ECA, 1-Electron XAS/XES, NRVS 
  Peter Pinski           : DLPNO-MP2, DLPNO-MP2 Gradient                 
  Christoph Reimann      : Effective Core Potentials                     
  Marius Retegan         : Local ZFS, SOC                                
  Christoph Riplinger    : Optimizer, TS searches, QM/MM, DLPNO-CCSD(T), (RO)-DLPNO pert. Triples 
  Michael Roemelt        : Original ROCIS implementation                 
  Masaaki Saitow         : Open-shell DLPNO-CCSD energy and density      
  Barbara Sandhoefer     : DKH picture change effects                    
  Kantharuban Sivalingam : CASSCF convergence/infrastructure, NEVPT2 and variants, FIC-MRCI 
  Bernardo de Souza      : ESD, SOC TD-DFT                               
  Georgi L. Stoychev     : AutoAux, RI-MP2 NMR, DLPNO-MP2 response, X2C  
  Van Anh Tran           : RI-MP2 g-tensors                              
  Willem Van den Heuvel  : Paramagnetic NMR                              
  Zikuan Wang            : NOTCH, Electric field optimization            
  Frank Wennmohs         : Technical directorship and infrastructure     
  Hang Xu                : AUTO-CI-Response properties                   
                                                                         
[FACCTs GmbH]                                                            
  Markus Bursch, Miquel Garcia-Rates, Christoph Riplinger, Bernardo de Souza, Georgi L. Stoychev 
                                                                 
  APM, Basis sets (HGBS, AHGBS, def-TZVP (Ac-Lr), def2-XVPD (La-Lu)), CI-OPT, improved COSX, DLPNO-Multilevel,           
  DOCKER, DRACO, updates on ESD, GOAT, IRC, LR-CPCM, MBIS, meta-GGA TD-DFT gradient, ML-optimized integration grids, 
  MM, NACMEs, nearIR, NEB, NEB-TS, NL-DFT gradient (VV10), 2- and 3-layer-ONIOM, interface openCOSMO-RS, QMMM,   
  Crystal-QMMM, SF, symmetry and pop. for TD-DFT, r2SCAN hybrids, SOLVATOR                                   
                                                                         
[Other institutions]                                                     
  V. Asgeirsson          : NEB                                           
  Christoph Bannwarth    : sTDA-DFT, sTD-DFT, PBEh-3c, B97-3c, D3        
  Sebastian Ehlert       : rSCAN, r2SCAN, r2SCAN-3c, D4, dhf basis sets  
  Marvin Friede          : D4 for Fr, Ra, Ac-Lr                          
  Lars Goerigk           : TD-DFT with DH, B97 family of functionals     
  Stefan Grimme          : VdW corrections, initial TS optimization, DFT functionals, gCP, sTDA/sTD-DF 
  Waldemar Hujo          : DFT-NL                                        
  H. Jonsson             : NEB                                           
  Holger Kruse           : gCP                                           
  Marcel Mueller         : wB97X-3c, vDZP basis set                      
  Hagen Neugebauer       : wr2SCAN                                       
  Tobias Risthaus        : range-separated hybrid DFT                    
  Lukas Wittmann         : regularized MP2, r2SCAN double-hybrids, wr2SCAN        
                                                                         
We gratefully acknowledge several colleagues who have allowed us to      
interface, adapt or use parts of their codes:                            
  Ed Valeev, F. Pavosevic, A. Kumar             : LibInt (2-el integral package), F12 methods 
  Garnet Chan, S. Sharma, J. Yang, R. Olivares  : DMRG                   
  Ulf Ekstrom                                   : XCFun DFT Library      
  Mihaly Kallay                                 : mrcc  (arbitrary order and MRCC methods)
  Frank Weinhold                                : gennbo (NPA and NBO analysis)           
  Simon Mueller                                 : openCOSMO-RS                            
  Christopher J. Cramer and Donald G. Truhlar   : smd solvation model                     
  S Lehtola, MJT Oliveira, MAL Marques          : LibXC Library                           
  Liviu Ungur et al                             : ANISO software                          


 Your calculation uses the libint2 library for the computation of 2-el integrals
 For citations please refer to: http://libint.valeyev.net

 Your ORCA version has been built with support for libXC version: 6.2.2
 For citations please refer to: https://libxc.gitlab.io

 This ORCA versions uses:
   CBLAS   interface :  Fast vector & matrix operations
   LAPACKE interface :  Fast linear algebra routines
   SCALAPACK package :  Parallel linear algebra routines
   Shared memory     :  Shared parallel matrices
   BLAS/LAPACK       :  OpenBLAS 0.3.27  USE64BITINT DYNAMIC_ARCH NO_AFFINITY SkylakeX SINGLE_THREADED
        Core in use  :  SkylakeX
   Copyright (c) 2011-2014, The OpenBLAS Project


NOTE: MaxCore=8000 MB was set to SCF,MP2,MDCI,CIPSI,MRCI and CIS
      => If you want to overwrite this, your respective input block should be placed after the MaxCore statement
Your calculation utilizes the atom-pairwise dispersion correction
with the Becke-Johnson damping scheme (D3BJ)


Your calculation utilizes the SMD solvation module
Please cite in your paper:
A.V. Marenich, C.J. Cramer, D.G. Truhlar J. Phys. Chem. B, 113, (2009), 6378 

Warning: RI is on but no J-basis has been assigned. Assigning Def2/J (nothing to worry about!)
================================================================================

----- Orbital basis set information -----
Your calculation utilizes the basis: def2-TZVP
   F. Weigend and R. Ahlrichs, Phys. Chem. Chem. Phys. 7, 3297 (2005).

----- AuxJ basis set information -----
Your calculation utilizes the auxiliary basis: def2/J
   F. Weigend, Phys. Chem. Chem. Phys. 8, 1057 (2006).

================================================================================
                                        WARNINGS
                       Please study these warnings very carefully!
================================================================================


WARNING: your system is open-shell and RHF/RKS was chosen
  ===> : WILL SWITCH to UHF/UKS


================================================================================
                                       INPUT FILE
================================================================================
NAME = rf_mecn_freq_B3L_C5_D_B.inp
|  1> !B3LYP def2-TZVP freq d3 TightSCF SlowConv defgrid2
|  2>  
|  3> %pal
|  4> nprocs 20
|  5> end
|  6>  
|  7> %scf
|  8> MaxIter 1500
|  9> end
| 10>  
| 11> %maxcore 8000
| 12>  
| 13> !CPCM
| 14> %cpcm smd true
| 15> SMDsolvent "ACETONITRILE"
| 16> end
| 17>  
| 18> * xyz -1 2
| 19> 6        4.357790000      0.290678000     -1.028845000
| 20> 8        4.848566000     -0.579775000     -1.758980000
| 21> 8        4.432193000      1.529860000     -1.051406000
| 22> 6        3.463152000     -0.251705000      0.159134000
| 23> 6        1.971750000      0.159984000      0.021447000
| 24> 6        0.941689000     -0.670247000      0.858566000
| 25> 6       -0.422021000     -0.042202000      0.923874000
| 26> 6       -1.632174000     -0.548814000      0.206970000
| 27> 6       -2.820003000      0.464436000      0.211023000
| 28> 6       -4.017118000      0.093002000     -0.723152000
| 29> 9        3.505790000     -1.613190000      0.253548000
| 30> 9        3.923808000      0.230058000      1.355722000
| 31> 9        1.819268000      1.455975000      0.384273000
| 32> 9        1.607988000      0.043681000     -1.282014000
| 33> 9        0.824641000     -1.907739000      0.319228000
| 34> 9        1.428394000     -0.792993000      2.123743000
| 35> 9       -0.589609000      0.895881000      1.838931000
| 36> 9       -2.081696000     -1.714490000      0.764221000
| 37> 9       -1.307738000     -0.832018000     -1.080941000
| 38> 9       -2.365226000      1.671230000     -0.186063000
| 39> 9       -3.301647000      0.567845000      1.465980000
| 40> 9       -4.471464000     -1.133693000     -0.463309000
| 41> 9       -5.006020000      0.966673000     -0.512011000
| 42> 9       -3.659833000      0.161605000     -2.005487000
| 43> *
| 44> 
| 45>                          ****END OF INPUT****
================================================================================

                       ****************************
                       * Single Point Calculation *
                       ****************************

---------------------------------
CARTESIAN COORDINATES (ANGSTROEM)
---------------------------------
  C      4.357790    0.290678   -1.028845
  O      4.848566   -0.579775   -1.758980
  O      4.432193    1.529860   -1.051406
  C      3.463152   -0.251705    0.159134
  C      1.971750    0.159984    0.021447
  C      0.941689   -0.670247    0.858566
  C     -0.422021   -0.042202    0.923874
  C     -1.632174   -0.548814    0.206970
  C     -2.820003    0.464436    0.211023
  C     -4.017118    0.093002   -0.723152
  F      3.505790   -1.613190    0.253548
  F      3.923808    0.230058    1.355722
  F      1.819268    1.455975    0.384273
  F      1.607988    0.043681   -1.282014
  F      0.824641   -1.907739    0.319228
  F      1.428394   -0.792993    2.123743
  F     -0.589609    0.895881    1.838931
  F     -2.081696   -1.714490    0.764221
  F     -1.307738   -0.832018   -1.080941
  F     -2.365226    1.671230   -0.186063
  F     -3.301647    0.567845    1.465980
  F     -4.471464   -1.133693   -0.463309
  F     -5.006020    0.966673   -0.512011
  F     -3.659833    0.161605   -2.005487

----------------------------
CARTESIAN COORDINATES (A.U.)
----------------------------
  NO LB      ZA    FRAG     MASS         X           Y           Z
   0 C     6.0000    0    12.011    8.235030    0.549302   -1.944235
   1 O     8.0000    0    15.999    9.162462   -1.095616   -3.323990
   2 O     8.0000    0    15.999    8.375631    2.891016   -1.986869
   3 C     6.0000    0    12.011    6.544409   -0.475654    0.300720
   4 C     6.0000    0    12.011    3.726068    0.302326    0.040529
   5 C     6.0000    0    12.011    1.779534   -1.266583    1.622455
   6 C     6.0000    0    12.011   -0.797504   -0.079750    1.745869
   7 C     6.0000    0    12.011   -3.084362   -1.037108    0.391117
   8 C     6.0000    0    12.011   -5.329033    0.877657    0.398776
   9 C     6.0000    0    12.011   -7.591253    0.175748   -1.366559
  10 F     9.0000    0    18.998    6.624983   -3.048487    0.479136
  11 F     9.0000    0    18.998    7.414923    0.434747    2.561943
  12 F     9.0000    0    18.998    3.437918    2.751394    0.726171
  13 F     9.0000    0    18.998    3.038657    0.082545   -2.422655
  14 F     9.0000    0    18.998    1.558346   -3.605104    0.603253
  15 F     9.0000    0    18.998    2.699273   -1.498540    4.013293
  16 F     9.0000    0    18.998   -1.114200    1.692970    3.475076
  17 F     9.0000    0    18.998   -3.933835   -3.239917    1.444168
  18 F     9.0000    0    18.998   -2.471267   -1.572286   -2.042682
  19 F     9.0000    0    18.998   -4.469629    3.158167   -0.351608
  20 F     9.0000    0    18.998   -6.239209    1.073072    2.770301
  21 F     9.0000    0    18.998   -8.449842   -2.142369   -0.875527
  22 F     9.0000    0    18.998   -9.460007    1.826747   -0.967561
  23 F     9.0000    0    18.998   -6.916082    0.305389   -3.789821

--------------------------------
INTERNAL COORDINATES (ANGSTROEM)
--------------------------------
 C      0   0   0     0.000000000000     0.00000000     0.00000000
 O      1   0   0     1.237597117648     0.00000000     0.00000000
 O      1   2   0     1.241618634788   131.87268427     0.00000000
 C      1   2   3     1.582987862927   115.20608540   179.85557391
 C      4   1   2     1.553295035817   112.66258560   245.15671687
 C      5   4   1     1.565591708346   116.34483654   161.41435164
 C      6   5   4     1.502800925269   113.49433635   167.15644772
 C      7   6   5     1.495017507312   124.89549392   107.62887104
 C      8   7   6     1.561291043512   113.24546622   192.43616648
 C      9   8   7     1.563243573537   115.26840837   170.07860018
 F      4   1   2     1.365420597349   112.07925429     6.53297823
 F      4   1   2     1.369716167769   110.18339456   124.61997655
 F      5   4   1     1.354432035460   109.75233175   282.86693293
 F      5   4   1     1.358256146305   108.63360739    40.73234100
 F      6   5   4     1.354980502669   109.16684704   288.56775484
 F      6   5   4     1.361110274324   108.03330132    46.45861463
 F      7   6   5     1.321141463236   116.22859701   276.90634791
 F      8   7   6     1.367990951162   111.06353646    71.26574584
 F      8   7   6     1.358005142712   109.39397397   313.76389087
 F      9   8   7     1.349389183876   108.85836972    49.70531236
 F      9   8   7     1.348180787530   108.90464977   290.96724756
 F     10   9   8     1.333690104706   111.28424032    54.26089811
 F     10   9   8     1.336341537080   108.47737221   173.63513672
 F     10   9   8     1.332944858221   110.94095856   292.67446770

---------------------------
INTERNAL COORDINATES (A.U.)
---------------------------
 C      0   0   0     0.000000000000     0.00000000     0.00000000
 O      1   0   0     2.338719616485     0.00000000     0.00000000
 O      1   2   0     2.346319182523   131.87268427     0.00000000
 C      1   2   3     2.991413534253   115.20608540   179.85557391
 C      4   1   2     2.935302222874   112.66258560   245.15671687
 C      5   4   1     2.958539566313   116.34483654   161.41435164
 C      6   5   4     2.839882182562   113.49433635   167.15644772
 C      7   6   5     2.825173654237   124.89549392   107.62887104
 C      8   7   6     2.950412487581   113.24546622   192.43616648
 C      9   8   7     2.954102234598   115.26840837   170.07860018
 F      4   1   2     2.580270986605   112.07925429     6.53297823
 F      4   1   2     2.588388438288   110.18339456   124.61997655
 F      5   4   1     2.559505614029   109.75233175   282.86693293
 F      5   4   1     2.566732136231   108.63360739    40.73234100
 F      6   5   4     2.560542066847   109.16684704   288.56775484
 F      6   5   4     2.572125656539   108.03330132    46.45861463
 F      7   6   5     2.496595549684   116.22859701   276.90634791
 F      8   7   6     2.585128251379   111.06353646    71.26574584
 F      8   7   6     2.566257808183   109.39397397   313.76389087
 F      9   8   7     2.549976005601   108.85836972    49.70531236
 F      9   8   7     2.547692467447   108.90464977   290.96724756
 F     10   9   8     2.520309045415   111.28424032    54.26089811
 F     10   9   8     2.525319526465   108.47737221   173.63513672
 F     10   9   8     2.518900733657   110.94095856   292.67446770

---------------------
BASIS SET INFORMATION
---------------------
There are 3 groups of distinct atoms

 Group   1 Type C   : 11s6p2d1f contracted to 5s3p2d1f pattern {62111/411/11/1}
 Group   2 Type O   : 11s6p2d1f contracted to 5s3p2d1f pattern {62111/411/11/1}
 Group   3 Type F   : 11s6p2d1f contracted to 5s3p2d1f pattern {62111/411/11/1}

Atom   0C    basis set group =>   1
Atom   1O    basis set group =>   2
Atom   2O    basis set group =>   2
Atom   3C    basis set group =>   1
Atom   4C    basis set group =>   1
Atom   5C    basis set group =>   1
Atom   6C    basis set group =>   1
Atom   7C    basis set group =>   1
Atom   8C    basis set group =>   1
Atom   9C    basis set group =>   1
Atom  10F    basis set group =>   3
Atom  11F    basis set group =>   3
Atom  12F    basis set group =>   3
Atom  13F    basis set group =>   3
Atom  14F    basis set group =>   3
Atom  15F    basis set group =>   3
Atom  16F    basis set group =>   3
Atom  17F    basis set group =>   3
Atom  18F    basis set group =>   3
Atom  19F    basis set group =>   3
Atom  20F    basis set group =>   3
Atom  21F    basis set group =>   3
Atom  22F    basis set group =>   3
Atom  23F    basis set group =>   3
---------------------------------
AUXILIARY/J BASIS SET INFORMATION
---------------------------------
There are 3 groups of distinct atoms

 Group   1 Type C   : 12s5p4d2f1g contracted to 6s4p3d1f1g pattern {711111/2111/211/2/1}
 Group   2 Type O   : 12s5p4d2f1g contracted to 6s4p3d1f1g pattern {711111/2111/211/2/1}
 Group   3 Type F   : 12s5p4d2f1g contracted to 6s4p3d1f1g pattern {711111/2111/211/2/1}

Atom   0C    basis set group =>   1
Atom   1O    basis set group =>   2
Atom   2O    basis set group =>   2
Atom   3C    basis set group =>   1
Atom   4C    basis set group =>   1
Atom   5C    basis set group =>   1
Atom   6C    basis set group =>   1
Atom   7C    basis set group =>   1
Atom   8C    basis set group =>   1
Atom   9C    basis set group =>   1
Atom  10F    basis set group =>   3
Atom  11F    basis set group =>   3
Atom  12F    basis set group =>   3
Atom  13F    basis set group =>   3
Atom  14F    basis set group =>   3
Atom  15F    basis set group =>   3
Atom  16F    basis set group =>   3
Atom  17F    basis set group =>   3
Atom  18F    basis set group =>   3
Atom  19F    basis set group =>   3
Atom  20F    basis set group =>   3
Atom  21F    basis set group =>   3
Atom  22F    basis set group =>   3
Atom  23F    basis set group =>   3


           ************************************************************
           *        Program running with 20 parallel MPI-processes    *
           *              working on a common directory               *
           ************************************************************
------------------------------------------------------------------------------
                             ORCA STARTUP CALCULATIONS
                           -- RI-GTO INTEGRALS CHOSEN --
------------------------------------------------------------------------------
------------------------------------------------------------------------------
                   ___                                                        
                  /   \      - P O W E R E D   B Y -                         
                 /     \                                                     
                 |  |  |   _    _      __       _____    __    __             
                 |  |  |  | |  | |    /  \     |  _  \  |  |  /  |          
                  \  \/   | |  | |   /    \    | | | |  |  | /  /          
                 / \  \   | |__| |  /  /\  \   | |_| |  |  |/  /          
                |  |  |   |  __  | /  /__\  \  |    /   |      \           
                |  |  |   | |  | | |   __   |  |    \   |  |\   \          
                \     /   | |  | | |  |  |  |  | |\  \  |  | \   \       
                 \___/    |_|  |_| |__|  |__|  |_| \__\ |__|  \__/        
                                                                              
                      - O R C A' S   B I G   F R I E N D -                    
                                      &                                       
                       - I N T E G R A L  F E E D E R -                       
                                                                              
 v1 FN, 2020, v2 2021, v3 2022-2024                                           
------------------------------------------------------------------------------


----------------------
SHARK INTEGRAL PACKAGE
----------------------

Number of atoms                             ...     24
Number of basis functions                   ...    744
Number of shells                            ...    264
Maximum angular momentum                    ...      3
Integral batch strategy                     ... SHARK/LIBINT Hybrid
RI-J (if used) integral strategy            ... SPLIT-RIJ (Revised 2003 algorithm where possible)
Printlevel                                  ...      1
Contraction scheme used                     ... SEGMENTED contraction
Prescreening option                         ... SCHWARTZ
   Thresh                                   ... 2.500e-11
   Tcut                                     ... 2.500e-12
   Tpresel                                  ... 2.500e-12 
Coulomb Range Separation                    ... NOT USED
Exchange Range Separation                   ... NOT USED
Multipole approximations                    ... NOT USED
Finite Nucleus Model                        ... NOT USED
CABS basis                                  ... NOT available
Auxiliary Coulomb fitting basis             ... AVAILABLE
   # of basis functions in Aux-J            ...   1176
   # of shells in Aux-J                     ...    360
   Maximum angular momentum in Aux-J        ...      4
Auxiliary J/K fitting basis                 ... NOT available
Auxiliary Correlation fitting basis         ... NOT available
Auxiliary 'external' fitting basis          ... NOT available

Checking pre-screening integrals            ... done (  0.0 sec) Dimension = 264
Check shell pair data                       ... done (  0.0 sec)
Shell pair information
Shell pair cut-off parameter TPreSel        ...   2.5e-12
Total number of shell pairs                 ...     34980
Shell pairs after pre-screening             ...     21825
Total number of primitive shell pairs       ...    115968
Primitive shell pairs kept                  ...     46381
          la=0 lb=0:   4051 shell pairs
          la=1 lb=0:   5941 shell pairs
          la=1 lb=1:   2072 shell pairs
          la=2 lb=0:   3251 shell pairs
          la=2 lb=1:   2403 shell pairs
          la=2 lb=2:    680 shell pairs
          la=3 lb=0:   1484 shell pairs
          la=3 lb=1:   1165 shell pairs
          la=3 lb=2:    625 shell pairs
          la=3 lb=3:    153 shell pairs

Calculating one electron integrals          ... done (  0.0 sec)
Calculating RI/J V-Matrix + Cholesky decomp.... done (  0.1 sec)
Calculating Nuclear repulsion               ... done (  0.0 sec) ENN=   2622.288939078135 Eh

Diagonalization of the overlap matrix:
Smallest eigenvalue                        ... 6.848e-05
Time for diagonalization                   ...    0.124 sec
Threshold for overlap eigenvalues          ... 1.000e-07
Number of eigenvalues below threshold      ... 0
Time for construction of square roots      ...    0.049 sec
Total time needed                          ...    0.180 sec

-------------------
DFT GRID GENERATION
-------------------

General Integration Accuracy     IntAcc      ... 4.388
Radial Grid Type                 RadialGrid  ... OptM3 with GC (2021)
Angular Grid (max. ang.)         AngularGrid ... 4 (Lebedev-302)
Angular grid pruning method      GridPruning ... 4 (adaptive)
Weight generation scheme         WeightScheme... mBecke (2022)
Basis function cutoff            BFCut       ... 1.0000e-11
Integration weight cutoff        WCut        ... 1.0000e-14
Partially contracted basis set               ... off
Rotationally invariant grid construction     ... off
Angular grids for H and He will be reduced by one unit

Total number of grid points                  ...   145468
Total number of batches                      ...     2286
Average number of points per batch           ...       63
Average number of grid points per atom       ...     6061

--------------------
COSX GRID GENERATION
--------------------

GRIDX 1
-------
General Integration Accuracy     IntAcc      ... 3.816
Radial Grid Type                 RadialGrid  ... OptM3 with GC (2021)
Angular Grid (max. ang.)         AngularGrid ... 1 (Lebedev-50)
Angular grid pruning method      GridPruning ... 4 (adaptive)
Weight generation scheme         WeightScheme... mBecke (2022)
Basis function cutoff            BFCut       ... 1.0000e-11
Integration weight cutoff        WCut        ... 1.0000e-14
Partially contracted basis set               ... on
Rotationally invariant grid construction     ... off
Angular grids for H and He will be reduced by one unit

Total number of grid points                  ...    18258
Total number of batches                      ...      153
Average number of points per batch           ...      119
Average number of grid points per atom       ...      761
UseSFitting                                  ... on

GRIDX 2
-------
General Integration Accuracy     IntAcc      ... 4.020
Radial Grid Type                 RadialGrid  ... OptM3 with GC (2021)
Angular Grid (max. ang.)         AngularGrid ... 2 (Lebedev-110)
Angular grid pruning method      GridPruning ... 4 (adaptive)
Weight generation scheme         WeightScheme... mBecke (2022)
Basis function cutoff            BFCut       ... 1.0000e-11
Integration weight cutoff        WCut        ... 1.0000e-14
Partially contracted basis set               ... on
Rotationally invariant grid construction     ... off
Angular grids for H and He will be reduced by one unit

Total number of grid points                  ...    43295
Total number of batches                      ...      354
Average number of points per batch           ...      122
Average number of grid points per atom       ...     1804
UseSFitting                                  ... on

GRIDX 3
-------
General Integration Accuracy     IntAcc      ... 4.338
Radial Grid Type                 RadialGrid  ... OptM3 with GC (2021)
Angular Grid (max. ang.)         AngularGrid ... 3 (Lebedev-194)
Angular grid pruning method      GridPruning ... 4 (adaptive)
Weight generation scheme         WeightScheme... mBecke (2022)
Basis function cutoff            BFCut       ... 1.0000e-11
Integration weight cutoff        WCut        ... 1.0000e-14
Partially contracted basis set               ... on
Rotationally invariant grid construction     ... off
Angular grids for H and He will be reduced by one unit

Total number of grid points                  ...    96025
Total number of batches                      ...      761
Average number of points per batch           ...      126
Average number of grid points per atom       ...     4001
UseSFitting                                  ... on
Initializing property integral containers    ... done (  0.0 sec)

SHARK setup successfully completed in   3.7 seconds

Maximum memory used throughout the entire STARTUP-calculation: 56.9 MB


           ************************************************************
           *        Program running with 20 parallel MPI-processes    *
           *              working on a common directory               *
           ************************************************************
-------------------------------------------------------------------------------
                                 ORCA GUESS
                   Start orbitals & Density for SCF / CASSCF
-------------------------------------------------------------------------------

------------
SCF SETTINGS
------------
Hamiltonian:
 Density Functional     Method          .... DFT(GTOs)
 Exchange Functional    Exchange        .... B88
   X-Alpha parameter    XAlpha          ....  0.666667
   Becke's b parameter  XBeta           ....  0.004200
 Correlation Functional Correlation     .... LYP
 LDA part of GGA corr.  LDAOpt          .... VWN-5
 Gradients option       PostSCFGGA      .... off
 Hybrid DFT is turned on
   Fraction HF Exchange ScalHFX         ....  0.200000
   Scaling of DF-GGA-X  ScalDFX         ....  0.720000
   Scaling of DF-GGA-C  ScalDFC         ....  0.810000
   Scaling of DF-LDA-C  ScalLDAC        ....  1.000000
   Perturbative correction              ....  0.000000
   NL short-range parameter             ....  4.800000
 RI-approximation to the Coulomb term is turned on
   Number of AuxJ basis functions       .... 1176
   RIJ-COSX (HFX calculated with COS-X)).... on


General Settings:
 Integral files         IntName         .... rf_mecn_freq_B3L_C5_D_B
 Hartree-Fock type      HFTyp           .... UHF
 Total Charge           Charge          ....   -1
 Multiplicity           Mult            ....    2
 Number of Electrons    NEL             ....  191
 Basis Dimension        Dim             ....  744
 Nuclear Repulsion      ENuc            ....   2622.2889390781 Eh

Convergence Acceleration:
 AO-DIIS                CNVDIIS         .... on
   Start iteration      DIISMaxIt       ....     0
   Startup error        DIISStart       ....  0.200000
   # of expansion vecs  DIISMaxEq       ....     5
   Bias factor          DIISBfac        ....   1.050
   Max. coefficient     DIISMaxC        ....  10.000
 MO-DIIS                CNVKDIIS        .... off
 Trust-Rad. Augm. Hess. CNVTRAH         .... auto
   Auto Start mean grad. ratio tolernc. ....  1.125000
   Auto Start start iteration           ....    50
   Auto Start num. interpolation iter.  ....    10
   Max. Number of Micro iterations      ....    24
   Max. Number of Macro iterations      .... Maxiter - #DIIS iter
   Number of Davidson start vectors     ....     2
   Converg. threshold    (grad. norm)   ....   1.000e-05
   Grad. Scal. Fac. for Micro threshold ....   0.100
   Minimum threshold for Micro iter.    ....   1.000e-02
   NR start threshold (gradient norm)   ....   1.000e-04
   Initial trust radius                 ....   0.400
   Minimum AH scaling param. (alpha)    ....   1.000
   Maximum AH scaling param. (alpha)    .... 1000.000
   Quad. conv. algorithm                .... NR
   White noise on init. David. guess    .... on
   Maximum white noise                  ....   0.010
   Pseudo random numbers                .... off
   Inactive MOs                         .... canonical
   Orbital update algorithm             .... Taylor
   Preconditioner                       .... Diag
   Full preconditioner red. dimension   ....   250
 SOSCF                  CNVSOSCF        .... on
   Start iteration      SOSCFMaxIt      ....   150
   Startup grad/error   SOSCFStart      ....  0.001000
   Hessian update       SOSCFHessUp     .... L-BFGS
 Level Shifting         CNVShift        .... on
   Level shift para.    LevelShift      ....    0.2500
   Turn off err/grad.   ShiftErr        ....    0.0000
 Zerner damping         CNVZerner       .... off
 Static damping         CNVDamp         .... on
   Fraction old density DampFac         ....    0.8500
   Max. Damping (<1)    DampMax         ....    0.9800
   Min. Damping (>=0)   DampMin         ....    0.0000
   Turn off err/grad.   DampErr         ....    0.0300

SCF Procedure:
 Maximum # iterations   MaxIter         ....  1500
 SCF integral mode      SCFMode         .... Direct
   Integral package                     .... SHARK and LIBINT hybrid scheme
 Reset frequency        DirectResetFreq ....    20
 Integral Threshold     Thresh          ....  2.500e-11 Eh
 Primitive CutOff       TCut            ....  2.500e-12 Eh

Convergence Tolerance:
 Convergence Check Mode ConvCheckMode   .... Total+1el-Energy
 Convergence forced     ConvForced      .... 0
 Energy Change          TolE            ....  1.000e-08 Eh
 1-El. energy change                    ....  1.000e-05 Eh
 Orbital Gradient       TolG            ....  1.000e-05
 Orbital Rotation angle TolX            ....  1.000e-05
 DIIS Error             TolErr          ....  5.000e-07

------------------------------
INITIAL GUESS: MODEL POTENTIAL
------------------------------
Loading Hartree-Fock densities                     ... done
Calculating cut-offs                               ... done
Initializing the effective Hamiltonian             ... done
Setting up the integral package (SHARK)            ... done
Starting the Coulomb interaction                   ... done (   0.2 sec)
Making the grid                                    ... done (   0.5 sec)
Mapping shells                                     ... done
Starting the XC term evaluation                    ... done (   0.2 sec)
  promolecular density results
     # of electrons  =    189.999909984
     EX              =   -198.266741927
     EC              =     -7.144589209
     EX+EC           =   -205.411331136
Transforming the Hamiltonian                       ... done (   0.1 sec)
Diagonalizing the Hamiltonian                      ... done (   0.1 sec)
Back transforming the eigenvectors                 ... done (   0.0 sec)
Now organizing SCF variables                       ... done
                      ------------------
                      INITIAL GUESS DONE (   1.2 sec)
                      ------------------
             **** ENERGY FILE WAS UPDATED (rf_mecn_freq_B3L_C5_D_B.en.tmp) ****
Finished Guess after   1.9 sec
Maximum memory used throughout the entire GUESS-calculation: 45.6 MB


           ************************************************************
           *        Program running with 20 parallel MPI-processes    *
           *              working on a common directory               *
           ************************************************************

-------------------------------------------------------------------------------------------
                                      ORCA LEAN-SCF
                              memory conserving SCF solver
-------------------------------------------------------------------------------------------

--------------------
CPCM SOLVATION MODEL
--------------------
CPCM parameters:
  Epsilon                                         ...      35.6880
  Refrac                                          ...       1.3442
  Rsolv                                           ...       1.3000
  Surface type                                    ... GAUSSIAN VDW
  Discretization scheme                           ... Constant charge density
    Threshold for H atoms                         ...       5.0000 (charges/Ang^2)
    Threshold for non-H atoms                     ...       5.0000 (charges/Ang^2)
  Epsilon function type                           ...         CPCM
Solvent:                                          ... ACETONITRILE
SMD-CDS solvent descriptors:
  Soln                                            ...       1.3442
  Soln25                                          ...       1.3416
  Sola                                            ...       0.0700
  Solb                                            ...       0.3200
  Solg                                            ...      41.2500
  Solc                                            ...       0.0000
  Solh                                            ...       0.0000
Radii:
  Scheme                                          ... Element-dependent radii
  Radius for C  used is    3.4960 Bohr (=   1.8500 Ang.)
  Radius for O  used is    4.0969 Bohr (=   2.1680 Ang.)
  Radius for F  used is    3.2692 Bohr (=   1.7300 Ang.)
Calculating surface                               ...        done! (  0.0s)
Cavity surface points                             ...         2159
Cavity Volume                                     ...    2114.8918
Cavity Surface-area                               ...    1111.8271
Calculating surface distance matrix               ...        done! (  0.1s)
Performing Cholesky decomposition & store         ...        done! (  0.1s)
Overall time for CPCM initialization              ...                 0.2s

----------------------------------------D-I-I-S--------------------------------------------
Iteration    Energy (Eh)           Delta-E    RMSDP     MaxDP     DIISErr   Damp  Time(sec)
-------------------------------------------------------------------------------------------
               ***  Starting incremental Fock matrix formation  ***
    1    -1852.7078110289471624     0.00e+00  2.77e-04  4.10e-02  1.69e-01  0.850   7.4
Warning: op=0 Small HOMO/LUMO gap (   0.067) - skipping pre-diagonalization
         Will do a full diagonalization
    2    -1852.8735318714466302    -1.66e-01  3.74e-04  8.36e-02  1.18e-01  0.850   5.1
                               ***Turning on AO-DIIS***
    3    -1852.9640372724411463    -9.05e-02  1.89e-04  4.00e-02  7.20e-02  0.850   4.4
    4    -1853.0185658861723823    -5.45e-02  9.96e-05  1.66e-02  5.42e-02  0.850   4.2
    5    -1853.0574555422467711    -3.89e-02  5.96e-05  5.79e-03  4.48e-02  0.850   4.1
    6    -1853.0882690286684920    -3.08e-02  4.32e-05  2.97e-03  3.83e-02  0.850   4.0
    7    -1853.1138688664482288    -2.56e-02  3.67e-05  2.49e-03  3.30e-02  0.850   4.0
    8    -1853.1354684942084532    -2.16e-02  3.24e-05  2.21e-03  2.78e-02  0.850   4.0
    9    -1853.1534848234555284    -1.80e-02  1.87e-04  1.25e-02  2.31e-02  0.000   3.9
   10    -1853.2479619785904106    -9.45e-02  1.69e-05  3.06e-03  2.92e-03  0.000   4.1
                              *** Initializing SOSCF ***
---------------------------------------S-O-S-C-F--------------------------------------
Iteration    Energy (Eh)           Delta-E    RMSDP     MaxDP     MaxGrad    Time(sec)
--------------------------------------------------------------------------------------
   11    -1853.2481000012517143    -1.38e-04  8.90e-06  1.75e-03  4.60e-04     4.1
               *** Restarting incremental Fock matrix formation ***
   12    -1853.2481220594013394    -2.21e-05  9.25e-06  7.64e-04  7.98e-04     7.2
   13    -1853.2481273621338005    -5.30e-06  7.63e-06  8.93e-04  4.81e-04     5.1
   14    -1853.2481308842584440    -3.52e-06  3.96e-06  2.79e-04  2.92e-04     4.9
   15    -1853.2481321893351378    -1.31e-06  1.85e-06  2.43e-04  7.60e-05     4.9
   16    -1853.2481323958841131    -2.07e-07  1.32e-06  1.33e-04  8.09e-05     4.5
   17    -1853.2481326758556861    -2.80e-07  5.60e-07  8.84e-05  1.67e-05     4.4
   18    -1853.2481326621641529     1.37e-08  2.26e-07  2.95e-05  1.81e-05     3.6
   19    -1853.2481326740494296    -1.19e-08  2.56e-07  3.79e-05  3.17e-06     3.5
   20    -1853.2481326515639921     2.25e-08  9.32e-08  1.54e-05  2.65e-06     3.4
   21    -1853.2481326931342664    -4.16e-08  1.72e-07  2.76e-05  2.75e-07     3.0
                  *** Gradient check signals convergence ***

               *****************************************************
               *                     SUCCESS                       *
               *           SCF CONVERGED AFTER  21 CYCLES          *
               *****************************************************

Recomputing exchange energy using gridx3       ... done (    9.332 sec)
Old exchange energy                            :    -39.800288754 Eh
New exchange energy                            :    -39.800313875 Eh
Exchange energy change after final integration :     -0.000025120 Eh
Total energy after final integration           :  -1853.248157813 Eh

SMD CDS free energy correction energy :                 3.19304     Kcal/mol
Total Energy after SMD CDS correction =             -1853.243069384 Eh
             **** ENERGY FILE WAS UPDATED (rf_mecn_freq_B3L_C5_D_B.en.tmp) ****

----------------
TOTAL SCF ENERGY
----------------

Total Energy       :      -1853.24306938355971 Eh          -50429.30769 eV

Components:
Nuclear Repulsion  :       2622.28893907813517 Eh           71356.10971 eV
Electronic Energy  :      -4475.45235941443752 Eh         -121783.25004 eV
One Electron Energy:      -7819.05389742416446 Eh         -212767.27343 eV
Two Electron Energy:       3343.60153800972694 Eh           90984.02339 eV
CPCM Dielectric    :         -0.08471235683212 Eh              -2.30514 eV
SMD CDS (Gcds)     :          0.00508842985863 Eh               0.13846 eV

Virial components:
Potential Energy   :      -3700.21265646586698 Eh         -100687.90526 eV
Kinetic Energy     :       1846.96958708230727 Eh           50258.59756 eV
Virial Ratio       :          2.00339663541031

DFT components:
N(Alpha)           :       96.000016460331 electrons
N(Beta)            :       95.000009518421 electrons
N(Total)           :      191.000025978753 electrons
E(X)               :     -158.619536330790 Eh       
E(C)               :       -8.380667485554 Eh       
E(XC)              :     -167.000203816345 Eh       

CPCM Solvation Model Properties:
Surface-charge          :          0.98951880350519
Corrected charge        :          1.00000000000000
Outlying charge corr.   :          0.00000604730992 Eh               0.00016 eV
Free-energy (cav+disp)  :          0.00508842985863 Eh               0.13846 eV

---------------
SCF CONVERGENCE
---------------

  Last Energy change         ...    4.1570e-08  Tolerance :   1.0000e-08
  Last MAX-Density change    ...    2.7567e-05  Tolerance :   1.0000e-07
  Last RMS-Density change    ...    1.7174e-07  Tolerance :   5.0000e-09
  Last DIIS Error            ...    4.5990e-04  Tolerance :   5.0000e-07
  Last Orbital Gradient      ...    2.7460e-07  Tolerance :   1.0000e-05
  Last Orbital Rotation      ...    2.1498e-06  Tolerance :   1.0000e-05


----------------------
UHF SPIN CONTAMINATION
----------------------

Warning: in a DFT calculation there is little theoretical justification to 
         calculate <S**2> as in Hartree-Fock theory. We will do it anyways
         but you should keep in mind that the values have only limited relevance

Expectation value of <S**2>     :     0.754093
Ideal value S*(S+1) for S=0.5   :     0.750000
Deviation                       :     0.004093

----------------
ORBITAL ENERGIES
----------------
                 SPIN UP ORBITALS
  NO   OCC          E(Eh)            E(eV) 
   0   1.0000     -24.753857      -673.5867 
   1   1.0000     -24.743062      -673.2930 
   2   1.0000     -24.742284      -673.2718 
   3   1.0000     -24.741401      -673.2478 
   4   1.0000     -24.741038      -673.2379 
   5   1.0000     -24.740422      -673.2211 
   6   1.0000     -24.734393      -673.0571 
   7   1.0000     -24.728894      -672.9074 
   8   1.0000     -24.728702      -672.9022 
   9   1.0000     -24.726261      -672.8358 
  10   1.0000     -24.721489      -672.7059 
  11   1.0000     -24.720570      -672.6809 
  12   1.0000     -24.696992      -672.0393 
  13   1.0000     -24.696574      -672.0279 
  14   1.0000     -19.061382      -518.6866 
  15   1.0000     -19.059361      -518.6316 
  16   1.0000     -10.459577      -284.6196 
  17   1.0000     -10.403724      -283.0997 
  18   1.0000     -10.402598      -283.0691 
  19   1.0000     -10.393068      -282.8098 
  20   1.0000     -10.376523      -282.3595 
  21   1.0000     -10.341979      -281.4196 
  22   1.0000     -10.322651      -280.8936 
  23   1.0000     -10.253767      -279.0192 
  24   1.0000      -1.351659       -36.7805 
  25   1.0000      -1.316214       -35.8160 
  26   1.0000      -1.306778       -35.5592 
  27   1.0000      -1.297752       -35.3136 
  28   1.0000      -1.292021       -35.1577 
  29   1.0000      -1.285208       -34.9723 
  30   1.0000      -1.263609       -34.3845 
  31   1.0000      -1.260946       -34.3121 
  32   1.0000      -1.258245       -34.2386 
  33   1.0000      -1.251598       -34.0577 
  34   1.0000      -1.241276       -33.7768 
  35   1.0000      -1.239331       -33.7239 
  36   1.0000      -1.229751       -33.4632 
  37   1.0000      -1.203288       -32.7431 
  38   1.0000      -1.024312       -27.8730 
  39   1.0000      -0.941865       -25.6295 
  40   1.0000      -0.854167       -23.2431 
  41   1.0000      -0.823384       -22.4054 
  42   1.0000      -0.793313       -21.5871 
  43   1.0000      -0.755970       -20.5710 
  44   1.0000      -0.710880       -19.3440 
  45   1.0000      -0.685124       -18.6432 
  46   1.0000      -0.662035       -18.0149 
  47   1.0000      -0.645785       -17.5727 
  48   1.0000      -0.639027       -17.3888 
  49   1.0000      -0.635027       -17.2800 
  50   1.0000      -0.618994       -16.8437 
  51   1.0000      -0.614759       -16.7284 
  52   1.0000      -0.612520       -16.6675 
  53   1.0000      -0.607068       -16.5192 
  54   1.0000      -0.603573       -16.4241 
  55   1.0000      -0.592742       -16.1293 
  56   1.0000      -0.583827       -15.8867 
  57   1.0000      -0.575918       -15.6715 
  58   1.0000      -0.572324       -15.5737 
  59   1.0000      -0.565009       -15.3747 
  60   1.0000      -0.548336       -14.9210 
  61   1.0000      -0.531892       -14.4735 
  62   1.0000      -0.514036       -13.9876 
  63   1.0000      -0.505554       -13.7568 
  64   1.0000      -0.501879       -13.6568 
  65   1.0000      -0.495511       -13.4835 
  66   1.0000      -0.487080       -13.2541 
  67   1.0000      -0.486345       -13.2341 
  68   1.0000      -0.482617       -13.1327 
  69   1.0000      -0.476260       -12.9597 
  70   1.0000      -0.475730       -12.9453 
  71   1.0000      -0.472124       -12.8472 
  72   1.0000      -0.464841       -12.6490 
  73   1.0000      -0.462070       -12.5736 
  74   1.0000      -0.460311       -12.5257 
  75   1.0000      -0.456281       -12.4160 
  76   1.0000      -0.454669       -12.3722 
  77   1.0000      -0.449651       -12.2356 
  78   1.0000      -0.445899       -12.1335 
  79   1.0000      -0.442256       -12.0344 
  80   1.0000      -0.440772       -11.9940 
  81   1.0000      -0.438668       -11.9368 
  82   1.0000      -0.433707       -11.8018 
  83   1.0000      -0.430718       -11.7204 
  84   1.0000      -0.426652       -11.6098 
  85   1.0000      -0.416931       -11.3453 
  86   1.0000      -0.410723       -11.1764 
  87   1.0000      -0.401571       -10.9273 
  88   1.0000      -0.398814       -10.8523 
  89   1.0000      -0.384564       -10.4645 
  90   1.0000      -0.373172       -10.1545 
  91   1.0000      -0.351066        -9.5530 
  92   1.0000      -0.270667        -7.3652 
  93   1.0000      -0.250336        -6.8120 
  94   1.0000      -0.237802        -6.4709 
  95   1.0000      -0.236446        -6.4340 
  96   0.0000      -0.001668        -0.0454 
  97   0.0000       0.023034         0.6268 
  98   0.0000       0.036052         0.9810 
  99   0.0000       0.054563         1.4847 
 100   0.0000       0.066667         1.8141 
 101   0.0000       0.087270         2.3747 
 102   0.0000       0.098948         2.6925 
 103   0.0000       0.112539         3.0623 
 104   0.0000       0.119170         3.2428 
 105   0.0000       0.128472         3.4959 
 106   0.0000       0.136629         3.7179 

                 SPIN DOWN ORBITALS
  NO   OCC          E(Eh)            E(eV) 
   0   1.0000     -24.749334      -673.4636 
   1   1.0000     -24.743059      -673.2929 
   2   1.0000     -24.742284      -673.2718 
   3   1.0000     -24.741401      -673.2477 
   4   1.0000     -24.740969      -673.2360 
   5   1.0000     -24.740362      -673.2195 
   6   1.0000     -24.733693      -673.0380 
   7   1.0000     -24.728394      -672.8938 
   8   1.0000     -24.727217      -672.8618 
   9   1.0000     -24.725497      -672.8150 
  10   1.0000     -24.721462      -672.7052 
  11   1.0000     -24.720530      -672.6798 
  12   1.0000     -24.696977      -672.0389 
  13   1.0000     -24.696576      -672.0280 
  14   1.0000     -19.061284      -518.6839 
  15   1.0000     -19.059339      -518.6310 
  16   1.0000     -10.459585      -284.6198 
  17   1.0000     -10.403685      -283.0987 
  18   1.0000     -10.403254      -283.0869 
  19   1.0000     -10.393894      -282.8322 
  20   1.0000     -10.375949      -282.3439 
  21   1.0000     -10.341871      -281.4166 
  22   1.0000     -10.308154      -280.4991 
  23   1.0000     -10.253741      -279.0185 
  24   1.0000      -1.351622       -36.7795 
  25   1.0000      -1.314783       -35.7771 
  26   1.0000      -1.305199       -35.5163 
  27   1.0000      -1.296121       -35.2693 
  28   1.0000      -1.286553       -35.0089 
  29   1.0000      -1.281701       -34.8769 
  30   1.0000      -1.263493       -34.3814 
  31   1.0000      -1.260895       -34.3107 
  32   1.0000      -1.258230       -34.2382 
  33   1.0000      -1.251341       -34.0507 
  34   1.0000      -1.240127       -33.7456 
  35   1.0000      -1.236693       -33.6521 
  36   1.0000      -1.229361       -33.4526 
  37   1.0000      -1.203268       -32.7426 
  38   1.0000      -1.024190       -27.8696 
  39   1.0000      -0.941726       -25.6257 
  40   1.0000      -0.842438       -22.9239 
  41   1.0000      -0.819780       -22.3073 
  42   1.0000      -0.787732       -21.4353 
  43   1.0000      -0.753977       -20.5168 
  44   1.0000      -0.707522       -19.2526 
  45   1.0000      -0.682129       -18.5617 
  46   1.0000      -0.658692       -17.9239 
  47   1.0000      -0.645190       -17.5565 
  48   1.0000      -0.637397       -17.3445 
  49   1.0000      -0.634713       -17.2714 
  50   1.0000      -0.617246       -16.7961 
  51   1.0000      -0.611420       -16.6376 
  52   1.0000      -0.609198       -16.5771 
  53   1.0000      -0.605737       -16.4830 
  54   1.0000      -0.602527       -16.3956 
  55   1.0000      -0.591098       -16.0846 
  56   1.0000      -0.580491       -15.7960 
  57   1.0000      -0.573843       -15.6151 
  58   1.0000      -0.570809       -15.5325 
  59   1.0000      -0.563779       -15.3412 
  60   1.0000      -0.548205       -14.9174 
  61   1.0000      -0.513774       -13.9805 
  62   1.0000      -0.505132       -13.7453 
  63   1.0000      -0.503929       -13.7126 
  64   1.0000      -0.501305       -13.6412 
  65   1.0000      -0.494541       -13.4571 
  66   1.0000      -0.485878       -13.2214 
  67   1.0000      -0.484637       -13.1876 
  68   1.0000      -0.481669       -13.1069 
  69   1.0000      -0.474808       -12.9202 
  70   1.0000      -0.473436       -12.8828 
  71   1.0000      -0.470918       -12.8143 
  72   1.0000      -0.463097       -12.6015 
  73   1.0000      -0.461749       -12.5648 
  74   1.0000      -0.459064       -12.4918 
  75   1.0000      -0.453977       -12.3534 
  76   1.0000      -0.452535       -12.3141 
  77   1.0000      -0.449260       -12.2250 
  78   1.0000      -0.444993       -12.1089 
  79   1.0000      -0.441155       -12.0044 
  80   1.0000      -0.439172       -11.9505 
  81   1.0000      -0.437721       -11.9110 
  82   1.0000      -0.433245       -11.7892 
  83   1.0000      -0.430315       -11.7095 
  84   1.0000      -0.425279       -11.5724 
  85   1.0000      -0.415885       -11.3168 
  86   1.0000      -0.410630       -11.1738 
  87   1.0000      -0.400440       -10.8965 
  88   1.0000      -0.398403       -10.8411 
  89   1.0000      -0.384438       -10.4611 
  90   1.0000      -0.371369       -10.1055 
  91   1.0000      -0.348623        -9.4865 
  92   1.0000      -0.250260        -6.8099 
  93   1.0000      -0.238328        -6.4852 
  94   1.0000      -0.236563        -6.4372 
  95   0.0000      -0.124018        -3.3747 
  96   0.0000       0.001179         0.0321 
  97   0.0000       0.024928         0.6783 
  98   0.0000       0.040156         1.0927 
  99   0.0000       0.055947         1.5224 
 100   0.0000       0.078097         2.1251 
 101   0.0000       0.089855         2.4451 
 102   0.0000       0.102415         2.7869 
 103   0.0000       0.113296         3.0829 
 104   0.0000       0.121858         3.3159 
 105   0.0000       0.133288         3.6270 
*Only the first 10 virtual orbitals were printed.

                    ********************************
                    * MULLIKEN POPULATION ANALYSIS *
                    ********************************

--------------------------------------------
MULLIKEN ATOMIC CHARGES AND SPIN POPULATIONS
--------------------------------------------
   0 C :    0.145965    0.001296
   1 O :   -0.472572    0.003477
   2 O :   -0.487370    0.000816
   3 C :    0.335069    0.003754
   4 C :    0.314460    0.024127
   5 C :    0.375100   -0.020144
   6 C :    0.135948    0.830742
   7 C :    0.336928    0.008290
   8 C :    0.332523   -0.005466
   9 C :    0.476445    0.000033
  10 F :   -0.212207   -0.000031
  11 F :   -0.219997    0.000365
  12 F :   -0.190281    0.000719
  13 F :   -0.197557    0.000624
  14 F :   -0.180180    0.005625
  15 F :   -0.182901    0.014387
  16 F :   -0.145704    0.086663
  17 F :   -0.183899    0.030565
  18 F :   -0.178459    0.011966
  19 F :   -0.169289    0.000994
  20 F :   -0.167756    0.001146
  21 F :   -0.155202    0.000040
  22 F :   -0.155041   -0.000000
  23 F :   -0.154023    0.000012
Sum of atomic charges         :   -1.0000000
Sum of atomic spin populations:    1.0000000

-----------------------------------------------------
MULLIKEN REDUCED ORBITAL CHARGES AND SPIN POPULATIONS
-----------------------------------------------------
CHARGE
  0 C s       :     3.049352  s :     3.049352
      pz      :     0.872548  p :     2.536424
      px      :     0.848841
      py      :     0.815035
      dz2     :     0.034285  d :     0.243466
      dxz     :     0.022013
      dyz     :     0.068276
      dx2y2   :     0.045737
      dxy     :     0.073156
      f0      :     0.003193  f :     0.024793
      f+1     :     0.001653
      f-1     :     0.003867
      f+2     :     0.005475
      f-2     :     0.002164
      f+3     :     0.004730
      f-3     :     0.003712

  1 O s       :     3.765492  s :     3.765492
      pz      :     1.540788  p :     4.678270
      px      :     1.547776
      py      :     1.589707
      dz2     :     0.005714  d :     0.027146
      dxz     :     0.003731
      dyz     :     0.007100
      dx2y2   :     0.004896
      dxy     :     0.005705
      f0      :     0.000154  f :     0.001664
      f+1     :     0.000091
      f-1     :     0.000396
      f+2     :     0.000295
      f-2     :     0.000318
      f+3     :     0.000185
      f-3     :     0.000225

  2 O s       :     3.765354  s :     3.765354
      pz      :     1.702670  p :     4.693364
      px      :     1.622890
      py      :     1.367804
      dz2     :     0.002913  d :     0.027006
      dxz     :     0.000192
      dyz     :     0.007587
      dx2y2   :     0.008127
      dxy     :     0.008186
      f0      :     0.000206  f :     0.001646
      f+1     :     0.000037
      f-1     :     0.000243
      f+2     :     0.000298
      f-2     :     0.000017
      f+3     :     0.000478
      f-3     :     0.000365

  3 C s       :     3.144564  s :     3.144564
      pz      :     0.749504  p :     2.248235
      px      :     0.890608
      py      :     0.608123
      dz2     :     0.050447  d :     0.245925
      dxz     :     0.037334
      dyz     :     0.063744
      dx2y2   :     0.043294
      dxy     :     0.051106
      f0      :     0.005439  f :     0.026207
      f+1     :     0.003111
      f-1     :     0.003498
      f+2     :     0.005127
      f-2     :     0.001965
      f+3     :     0.004730
      f-3     :     0.002337

  4 C s       :     3.157427  s :     3.157427
      pz      :     0.636918  p :     2.225085
      px      :     0.926228
      py      :     0.661939
      dz2     :     0.050939  d :     0.275427
      dxz     :     0.055798
      dyz     :     0.067931
      dx2y2   :     0.045483
      dxy     :     0.055276
      f0      :     0.004890  f :     0.027601
      f+1     :     0.003821
      f-1     :     0.006163
      f+2     :     0.003402
      f-2     :     0.002416
      f+3     :     0.004376
      f-3     :     0.002533

  5 C s       :     3.099407  s :     3.099407
      pz      :     0.649286  p :     2.211315
      px      :     0.869520
      py      :     0.692509
      dz2     :     0.060489  d :     0.286710
      dxz     :     0.058375
      dyz     :     0.065317
      dx2y2   :     0.044901
      dxy     :     0.057627
      f0      :     0.004687  f :     0.027468
      f+1     :     0.002892
      f-1     :     0.006669
      f+2     :     0.003352
      f-2     :     0.003409
      f+3     :     0.003807
      f-3     :     0.002652

  6 C s       :     3.240228  s :     3.240228
      pz      :     0.816020  p :     2.457749
      px      :     0.861706
      py      :     0.780023
      dz2     :     0.032781  d :     0.148544
      dxz     :     0.032264
      dyz     :     0.017325
      dx2y2   :     0.025715
      dxy     :     0.040458
      f0      :     0.002484  f :     0.017531
      f+1     :     0.001535
      f-1     :     0.003324
      f+2     :     0.002623
      f-2     :     0.003290
      f+3     :     0.002478
      f-3     :     0.001798

  7 C s       :     3.118568  s :     3.118568
      pz      :     0.643719  p :     2.228224
      px      :     0.873407
      py      :     0.711099
      dz2     :     0.062838  d :     0.288596
      dxz     :     0.061690
      dyz     :     0.061579
      dx2y2   :     0.039385
      dxy     :     0.063105
      f0      :     0.004309  f :     0.027683
      f+1     :     0.004303
      f-1     :     0.006684
      f+2     :     0.003292
      f-2     :     0.002935
      f+3     :     0.002517
      f-3     :     0.003643

  8 C s       :     3.133204  s :     3.133204
      pz      :     0.667768  p :     2.227349
      px      :     0.860194
      py      :     0.699387
      dz2     :     0.056583  d :     0.278804
      dxz     :     0.057608
      dyz     :     0.065787
      dx2y2   :     0.044159
      dxy     :     0.054666
      f0      :     0.004992  f :     0.028120
      f+1     :     0.003319
      f-1     :     0.006086
      f+2     :     0.003656
      f-2     :     0.003145
      f+3     :     0.002858
      f-3     :     0.004064

  9 C s       :     3.022584  s :     3.022584
      pz      :     0.709421  p :     2.116841
      px      :     0.771398
      py      :     0.636022
      dz2     :     0.056886  d :     0.343756
      dxz     :     0.068851
      dyz     :     0.082414
      dx2y2   :     0.072674
      dxy     :     0.062931
      f0      :     0.006953  f :     0.040374
      f+1     :     0.004883
      f-1     :     0.007171
      f+2     :     0.003200
      f-2     :     0.005269
      f+3     :     0.006250
      f-3     :     0.006649

 10 F s       :     3.908078  s :     3.908078
      pz      :     1.903571  p :     5.288165
      px      :     1.910436
      py      :     1.474158
      dz2     :     0.002165  d :     0.015299
      dxz     :     0.000223
      dyz     :     0.003211
      dx2y2   :     0.006203
      dxy     :     0.003497
      f0      :     0.000057  f :     0.000665
      f+1     :     0.000012
      f-1     :     0.000137
      f+2     :     0.000094
      f-2     :     0.000006
      f+3     :     0.000138
      f-3     :     0.000220

 11 F s       :     3.909550  s :     3.909550
      pz      :     1.570350  p :     5.294866
      px      :     1.866383
      py      :     1.858134
      dz2     :     0.005190  d :     0.014929
      dxz     :     0.004019
      dyz     :     0.003743
      dx2y2   :     0.000940
      dxy     :     0.001036
      f0      :     0.000148  f :     0.000652
      f+1     :     0.000156
      f-1     :     0.000163
      f+2     :     0.000070
      f-2     :     0.000095
      f+3     :     0.000010
      f-3     :     0.000011

 12 F s       :     3.913300  s :     3.913300
      pz      :     1.866352  p :     5.260252
      px      :     1.905661
      py      :     1.488239
      dz2     :     0.002063  d :     0.016032
      dxz     :     0.000377
      dyz     :     0.004070
      dx2y2   :     0.005837
      dxy     :     0.003685
      f0      :     0.000069  f :     0.000697
      f+1     :     0.000008
      f-1     :     0.000118
      f+2     :     0.000138
      f-2     :     0.000031
      f+3     :     0.000141
      f-3     :     0.000191

 13 F s       :     3.917128  s :     3.917128
      pz      :     1.488443  p :     5.263946
      px      :     1.880150
      py      :     1.895354
      dz2     :     0.007535  d :     0.015801
      dxz     :     0.004401
      dyz     :     0.003045
      dx2y2   :     0.000495
      dxy     :     0.000324
      f0      :     0.000280  f :     0.000682
      f+1     :     0.000204
      f-1     :     0.000130
      f+2     :     0.000036
      f-2     :     0.000027
      f+3     :     0.000003
      f-3     :     0.000002

 14 F s       :     3.916362  s :     3.916362
      pz      :     1.828516  p :     5.247098
      px      :     1.904770
      py      :     1.513811
      dz2     :     0.002026  d :     0.016028
      dxz     :     0.000650
      dyz     :     0.004982
      dx2y2   :     0.005067
      dxy     :     0.003303
      f0      :     0.000078  f :     0.000691
      f+1     :     0.000005
      f-1     :     0.000116
      f+2     :     0.000175
      f-2     :     0.000056
      f+3     :     0.000115
      f-3     :     0.000147

 15 F s       :     3.914706  s :     3.914706
      pz      :     1.513940  p :     5.251905
      px      :     1.849935
      py      :     1.888029
      dz2     :     0.006677  d :     0.015615
      dxz     :     0.004835
      dyz     :     0.002871
      dx2y2   :     0.000689
      dxy     :     0.000544
      f0      :     0.000222  f :     0.000675
      f+1     :     0.000232
      f-1     :     0.000109
      f+2     :     0.000056
      f-2     :     0.000047
      f+3     :     0.000004
      f-3     :     0.000004

 16 F s       :     3.919099  s :     3.919099
      pz      :     1.659317  p :     5.207720
      px      :     1.899961
      py      :     1.648442
      dz2     :     0.004307  d :     0.018120
      dxz     :     0.002182
      dyz     :     0.006391
      dx2y2   :     0.003087
      dxy     :     0.002155
      f0      :     0.000098  f :     0.000765
      f+1     :     0.000028
      f-1     :     0.000228
      f+2     :     0.000189
      f-2     :     0.000119
      f+3     :     0.000046
      f-3     :     0.000057

 17 F s       :     3.915500  s :     3.915500
      pz      :     1.828790  p :     5.252315
      px      :     1.860646
      py      :     1.562879
      dz2     :     0.001897  d :     0.015424
      dxz     :     0.001183
      dyz     :     0.004425
      dx2y2   :     0.003971
      dxy     :     0.003946
      f0      :     0.000076  f :     0.000661
      f+1     :     0.000019
      f-1     :     0.000094
      f+2     :     0.000118
      f-2     :     0.000110
      f+3     :     0.000138
      f-3     :     0.000106

 18 F s       :     3.918156  s :     3.918156
      pz      :     1.485813  p :     5.243616
      px      :     1.885293
      py      :     1.872510
      dz2     :     0.007245  d :     0.016003
      dxz     :     0.004084
      dyz     :     0.003594
      dx2y2   :     0.000441
      dxy     :     0.000638
      f0      :     0.000261  f :     0.000684
      f+1     :     0.000178
      f-1     :     0.000157
      f+2     :     0.000032
      f-2     :     0.000051
      f+3     :     0.000003
      f-3     :     0.000003

 19 F s       :     3.915980  s :     3.915980
      pz      :     1.858983  p :     5.236166
      px      :     1.850121
      py      :     1.527062
      dz2     :     0.002116  d :     0.016433
      dxz     :     0.000891
      dyz     :     0.003948
      dx2y2   :     0.004754
      dxy     :     0.004723
      f0      :     0.000074  f :     0.000711
      f+1     :     0.000022
      f-1     :     0.000105
      f+2     :     0.000099
      f-2     :     0.000087
      f+3     :     0.000184
      f-3     :     0.000139

 20 F s       :     3.914032  s :     3.914032
      pz      :     1.499913  p :     5.236531
      px      :     1.847238
      py      :     1.889380
      dz2     :     0.007087  d :     0.016477
      dxz     :     0.005125
      dyz     :     0.003004
      dx2y2   :     0.000635
      dxy     :     0.000627
      f0      :     0.000242  f :     0.000716
      f+1     :     0.000246
      f-1     :     0.000111
      f+2     :     0.000055
      f-2     :     0.000053
      f+3     :     0.000004
      f-3     :     0.000005

 21 F s       :     3.911596  s :     3.911596
      pz      :     1.876271  p :     5.226141
      px      :     1.839267
      py      :     1.510603
      dz2     :     0.002339  d :     0.016702
      dxz     :     0.000725
      dyz     :     0.003556
      dx2y2   :     0.005218
      dxy     :     0.004863
      f0      :     0.000072  f :     0.000763
      f+1     :     0.000026
      f-1     :     0.000128
      f+2     :     0.000083
      f-2     :     0.000070
      f+3     :     0.000214
      f-3     :     0.000169

 22 F s       :     3.911163  s :     3.911163
      pz      :     1.884177  p :     5.226502
      px      :     1.637329
      py      :     1.704996
      dz2     :     0.002400  d :     0.016615
      dxz     :     0.002295
      dyz     :     0.001707
      dx2y2   :     0.003575
      dxy     :     0.006637
      f0      :     0.000069  f :     0.000761
      f+1     :     0.000090
      f-1     :     0.000071
      f+2     :     0.000015
      f-2     :     0.000122
      f+3     :     0.000180
      f-3     :     0.000214

 23 F s       :     3.910836  s :     3.910836
      pz      :     1.470984  p :     5.225663
      px      :     1.865838
      py      :     1.888841
      dz2     :     0.008114  d :     0.016757
      dxz     :     0.004691
      dyz     :     0.003173
      dx2y2   :     0.000348
      dxy     :     0.000431
      f0      :     0.000312  f :     0.000768
      f+1     :     0.000242
      f-1     :     0.000136
      f+2     :     0.000034
      f-2     :     0.000038
      f+3     :     0.000003
      f-3     :     0.000003


SPIN
  0 C s       :     0.000924  s :     0.000924
      pz      :     0.000286  p :     0.000282
      px      :     0.000172
      py      :    -0.000175
      dz2     :     0.000137  d :     0.000069
      dxz     :    -0.000035
      dyz     :     0.000038
      dx2y2   :    -0.000068
      dxy     :    -0.000004
      f0      :    -0.000001  f :     0.000021
      f+1     :     0.000002
      f-1     :     0.000008
      f+2     :     0.000002
      f-2     :     0.000003
      f+3     :     0.000007
      f-3     :    -0.000000

  1 O s       :     0.000093  s :     0.000093
      pz      :     0.002689  p :     0.003393
      px      :     0.000106
      py      :     0.000598
      dz2     :    -0.000005  d :    -0.000008
      dxz     :    -0.000003
      dyz     :     0.000001
      dx2y2   :    -0.000000
      dxy     :    -0.000001
      f0      :    -0.000000  f :    -0.000001
      f+1     :     0.000000
      f-1     :    -0.000001
      f+2     :    -0.000000
      f-2     :    -0.000000
      f+3     :    -0.000000
      f-3     :    -0.000000

  2 O s       :    -0.000049  s :    -0.000049
      pz      :     0.000764  p :     0.000867
      px      :    -0.000211
      py      :     0.000315
      dz2     :     0.000001  d :    -0.000003
      dxz     :    -0.000000
      dyz     :    -0.000004
      dx2y2   :    -0.000003
      dxy     :     0.000003
      f0      :    -0.000000  f :     0.000000
      f+1     :    -0.000000
      f-1     :     0.000000
      f+2     :    -0.000000
      f-2     :     0.000000
      f+3     :     0.000000
      f-3     :     0.000000

  3 C s       :    -0.000567  s :    -0.000567
      pz      :    -0.000285  p :     0.003861
      px      :     0.003969
      py      :     0.000177
      dz2     :    -0.000011  d :     0.000436
      dxz     :     0.000095
      dyz     :    -0.000001
      dx2y2   :     0.000310
      dxy     :     0.000042
      f0      :     0.000002  f :     0.000024
      f+1     :    -0.000000
      f-1     :     0.000002
      f+2     :     0.000004
      f-2     :     0.000003
      f+3     :     0.000008
      f-3     :     0.000006

  4 C s       :     0.000701  s :     0.000701
      pz      :     0.005950  p :     0.020674
      px      :     0.009916
      py      :     0.004808
      dz2     :     0.000482  d :     0.002752
      dxz     :     0.000086
      dyz     :     0.000029
      dx2y2   :     0.002071
      dxy     :     0.000084
      f0      :    -0.000004  f :    -0.000001
      f+1     :    -0.000004
      f-1     :    -0.000007
      f+2     :    -0.000007
      f-2     :     0.000016
      f+3     :     0.000017
      f-3     :    -0.000013

  5 C s       :    -0.010552  s :    -0.010552
      pz      :    -0.003426  p :    -0.031556
      px      :    -0.021139
      py      :    -0.006990
      dz2     :     0.000178  d :     0.020649
      dxz     :     0.010812
      dyz     :    -0.000066
      dx2y2   :     0.005704
      dxy     :     0.004021
      f0      :     0.000347  f :     0.001316
      f+1     :    -0.000009
      f-1     :     0.000014
      f+2     :     0.000109
      f-2     :     0.000238
      f+3     :     0.000573
      f-3     :     0.000044

  6 C s       :     0.048166  s :     0.048166
      pz      :     0.377909  p :     0.780994
      px      :     0.054771
      py      :     0.348313
      dz2     :     0.001524  d :     0.003439
      dxz     :     0.001018
      dyz     :    -0.000426
      dx2y2   :     0.000107
      dxy     :     0.001217
      f0      :    -0.000256  f :    -0.001856
      f+1     :    -0.000081
      f-1     :    -0.000552
      f+2     :    -0.000443
      f-2     :    -0.000357
      f+3     :    -0.000110
      f-3     :    -0.000057

  7 C s       :    -0.005282  s :    -0.005282
      pz      :     0.008732  p :    -0.003993
      px      :    -0.019937
      py      :     0.007212
      dz2     :     0.005765  d :     0.015835
      dxz     :     0.002400
      dyz     :    -0.000214
      dx2y2   :     0.000952
      dxy     :     0.006931
      f0      :    -0.000020  f :     0.001731
      f+1     :     0.000968
      f-1     :     0.000113
      f+2     :     0.000303
      f-2     :     0.000030
      f+3     :     0.000036
      f-3     :     0.000301

  8 C s       :    -0.002035  s :    -0.002035
      pz      :    -0.000780  p :    -0.003212
      px      :    -0.003093
      py      :     0.000661
      dz2     :    -0.000078  d :    -0.000254
      dxz     :    -0.000125
      dyz     :     0.000007
      dx2y2   :    -0.000066
      dxy     :     0.000008
      f0      :     0.000004  f :     0.000036
      f+1     :     0.000004
      f-1     :    -0.000001
      f+2     :     0.000002
      f-2     :     0.000009
      f+3     :     0.000016
      f-3     :     0.000002

  9 C s       :    -0.000239  s :    -0.000239
      pz      :     0.000128  p :     0.000287
      px      :    -0.000054
      py      :     0.000213
      dz2     :    -0.000009  d :    -0.000017
      dxz     :    -0.000000
      dyz     :    -0.000003
      dx2y2   :     0.000004
      dxy     :    -0.000009
      f0      :     0.000000  f :     0.000003
      f+1     :    -0.000000
      f-1     :    -0.000000
      f+2     :     0.000000
      f-2     :     0.000000
      f+3     :     0.000001
      f-3     :     0.000001

 10 F s       :     0.000014  s :     0.000014
      pz      :    -0.000034  p :    -0.000059
      px      :     0.000016
      py      :    -0.000040
      dz2     :     0.000001  d :     0.000013
      dxz     :     0.000000
      dyz     :     0.000000
      dx2y2   :     0.000002
      dxy     :     0.000010
      f0      :     0.000000  f :     0.000001
      f+1     :     0.000000
      f-1     :     0.000000
      f+2     :     0.000000
      f-2     :     0.000000
      f+3     :     0.000001
      f-3     :     0.000000

 11 F s       :     0.000014  s :     0.000014
      pz      :    -0.000039  p :     0.000337
      px      :     0.000261
      py      :     0.000115
      dz2     :     0.000002  d :     0.000014
      dxz     :     0.000013
      dyz     :    -0.000001
      dx2y2   :    -0.000000
      dxy     :    -0.000000
      f0      :     0.000000  f :     0.000000
      f+1     :     0.000000
      f-1     :     0.000000
      f+2     :     0.000000
      f-2     :     0.000000
      f+3     :    -0.000000
      f-3     :    -0.000000

 12 F s       :     0.000379  s :     0.000379
      pz      :     0.000785  p :     0.000270
      px      :    -0.000201
      py      :    -0.000314
      dz2     :     0.000005  d :     0.000067
      dxz     :     0.000002
      dyz     :     0.000010
      dx2y2   :     0.000044
      dxy     :     0.000006
      f0      :     0.000000  f :     0.000003
      f+1     :     0.000000
      f-1     :    -0.000000
      f+2     :     0.000000
      f-2     :     0.000000
      f+3     :     0.000001
      f-3     :     0.000002

 13 F s       :     0.000154  s :     0.000154
      pz      :    -0.000461  p :     0.000406
      px      :    -0.000013
      py      :     0.000881
      dz2     :     0.000023  d :     0.000061
      dxz     :     0.000004
      dyz     :     0.000010
      dx2y2   :     0.000024
      dxy     :     0.000000
      f0      :     0.000001  f :     0.000003
      f+1     :     0.000000
      f-1     :     0.000000
      f+2     :     0.000001
      f-2     :     0.000000
      f+3     :    -0.000000
      f-3     :     0.000000

 14 F s       :    -0.000013  s :    -0.000013
      pz      :     0.003538  p :     0.005628
      px      :    -0.000573
      py      :     0.002663
      dz2     :     0.000006  d :     0.000007
      dxz     :     0.000026
      dyz     :    -0.000017
      dx2y2   :     0.000020
      dxy     :    -0.000028
      f0      :    -0.000000  f :     0.000003
      f+1     :     0.000000
      f-1     :     0.000000
      f+2     :     0.000001
      f-2     :     0.000001
      f+3     :    -0.000001
      f-3     :     0.000002

 15 F s       :    -0.000034  s :    -0.000034
      pz      :     0.008341  p :     0.014447
      px      :     0.006217
      py      :    -0.000111
[...]
  7:     26.10   0.000584    2.95  0.006979  (-0.039593  0.072196 -0.014112)
  8:     28.33   0.000036    0.18  0.000400  ( 0.012764 -0.004570  0.014690)
  9:     37.36   0.000577    2.92  0.004821  (-0.035279 -0.032355 -0.050297)
 10:     48.49   0.000098    0.49  0.000629  ( 0.013352  0.016124  0.013825)
 11:     55.70   0.000098    0.49  0.000546  (-0.000700 -0.023025 -0.003979)
 12:     73.95   0.000328    1.66  0.001385  (-0.027847  0.019337 -0.015336)
 13:     87.68   0.000183    0.92  0.000650  ( 0.012796 -0.021500 -0.004857)
 14:    106.05   0.000487    2.46  0.001433  ( 0.031225  0.005743  0.020613)
 15:    124.74   0.000279    1.41  0.000698  ( 0.020268 -0.014572  0.008648)
 16:    158.55   0.001249    6.31  0.002458  ( 0.048423  0.008475 -0.006440)
 17:    178.92   0.000461    2.33  0.000805  (-0.007979 -0.002565  0.027100)
 18:    190.46   0.000196    0.99  0.000320  (-0.003464  0.005275 -0.016751)
 19:    202.39   0.001495    7.56  0.002305  (-0.019028  0.001246  0.044062)
 20:    217.49   0.001024    5.18  0.001470  (-0.019747 -0.032826  0.001486)
 21:    229.85   0.000170    0.86  0.000231  (-0.006782 -0.001543 -0.013496)
 22:    234.49   0.000136    0.69  0.000181  ( 0.004983  0.004149  0.011799)
 23:    245.29   0.000027    0.13  0.000034  ( 0.005107  0.000471  0.002758)
 24:    260.72   0.000163    0.83  0.000196  (-0.000606 -0.002107 -0.013810)
 25:    283.62   0.001313    6.64  0.001445  ( 0.036055 -0.006495  0.010146)
 26:    287.99   0.000440    2.22  0.000477  ( 0.014021 -0.016365 -0.003546)
 27:    308.85   0.000073    0.37  0.000073  ( 0.005016 -0.006909  0.000626)
 28:    328.78   0.000342    1.73  0.000324  ( 0.017328 -0.002894  0.003948)
 29:    343.70   0.000213    1.08  0.000193  (-0.012534 -0.000222 -0.006025)
 30:    355.77   0.000320    1.62  0.000281  (-0.013737  0.001701  0.009462)
 31:    364.68   0.000326    1.65  0.000279  (-0.016043 -0.001954 -0.004188)
 32:    366.54   0.000391    1.98  0.000333  (-0.017999 -0.002952 -0.000255)
 33:    369.48   0.000415    2.10  0.000351  ( 0.018558  0.001625  0.001959)
 34:    392.18   0.000293    1.48  0.000233  (-0.011397 -0.008433 -0.005669)
 35:    446.96   0.001196    6.05  0.000835  (-0.023554  0.008430 -0.014469)
 36:    464.92   0.000703    3.55  0.000472  (-0.016883  0.013578  0.001573)
 37:    503.63   0.001415    7.15  0.000877  (-0.012543  0.026526 -0.003964)
 38:    523.78   0.011285   57.03  0.006724  ( 0.079941 -0.018233 -0.000758)
 39:    534.23   0.004203   21.24  0.002455  ( 0.044918 -0.002797  0.020725)
 40:    538.80   0.002192   11.08  0.001270  (-0.034212 -0.007833 -0.006149)
 41:    568.77   0.002715   13.72  0.001490  ( 0.007917  0.019788 -0.032180)
 42:    588.67   0.005652   28.56  0.002996  ( 0.045139  0.023578  0.020072)
 43:    600.47   0.000260    1.32  0.000135  (-0.009699  0.003809 -0.005167)
 44:    624.35   0.004404   22.26  0.002201  (-0.040931 -0.021850 -0.006968)
 45:    665.07   0.034841  176.07  0.016348  ( 0.126910  0.005356 -0.014596)
 46:    688.29   0.012021   60.75  0.005450  (-0.072796 -0.003320 -0.011825)
 47:    698.22   0.003028   15.30  0.001354  ( 0.024484  0.006848 -0.026592)
 48:    723.89   0.009319   47.09  0.004017  ( 0.037243 -0.020386  0.047061)
 49:    774.50   0.001866    9.43  0.000752  ( 0.024131 -0.012814  0.002318)
 50:    792.38   0.021070  106.48  0.008298  ( 0.039403  0.028420 -0.077057)
 51:    867.51   0.007835   39.59  0.002818  ( 0.029706 -0.016016  0.040981)
 52:   1000.24   0.018495   93.46  0.005770  ( 0.039965 -0.041149  0.049796)
 53:   1036.83   0.030603  154.66  0.009211  (-0.064236 -0.067693  0.022416)
 54:   1067.36   0.052519  265.41  0.015355  ( 0.033946  0.090663 -0.077348)
 55:   1082.36   0.053835  272.06  0.015522  ( 0.023557  0.077462  0.094691)
 56:   1104.84   0.001341    6.78  0.000379  ( 0.011254 -0.010358 -0.012037)
 57:   1107.50   0.028331  143.17  0.007983  ( 0.020599 -0.076784  0.040776)
 58:   1113.92   0.083532  422.14  0.023401  ( 0.057830  0.035763  0.137033)
 59:   1130.11   0.069697  352.22  0.019246  (-0.003869  0.119435  0.070470)
 60:   1143.41   0.031477  159.07  0.008591  ( 0.021943  0.067782  0.059286)
 61:   1149.83   0.082109  414.95  0.022284  (-0.056247 -0.080108  0.112709)
 62:   1160.79   0.114461  578.44  0.030771  ( 0.073303 -0.145047 -0.066026)
 63:   1181.56   0.066857  337.87  0.017658  (-0.051040 -0.071034  0.100034)
 64:   1213.39   0.001520    7.68  0.000391  (-0.005031 -0.004900 -0.018480)
 65:   1230.89   0.012957   65.48  0.003285  (-0.007515 -0.055653 -0.011458)
 66:   1244.43   0.005585   28.22  0.001401  ( 0.000450 -0.001908 -0.037373)
 67:   1297.75   0.023001  116.24  0.005531  ( 0.052549  0.003039  0.052540)
 68:   1334.46   0.012105   61.18  0.002831  (-0.028278  0.012645 -0.043259)
 69:   1362.44   0.067584  341.54  0.015480  (-0.102334 -0.022529  0.067082)
 70:   1402.72   0.003523   17.81  0.000784  (-0.007132  0.021343  0.016658)
 71:   1729.13   0.161019  813.72  0.029060  (-0.031755  0.158545  0.053989)

* The epsilon (eps) is given for a Dirac delta lineshape.
** The dipole moment derivative (T) already includes vibrational overlap.

The first frequency considered to be a vibration is 6
The total number of vibrations considered is 66


--------------------------
THERMOCHEMISTRY AT 298.15K
--------------------------

Temperature         ...   298.15 K
Pressure            ...     1.00 atm
Total Mass          ...   394.06 AMU
Quasi RRHO          ...     True
Cut-Off Frequency   ...     1.00 cm^-1

Throughout the following assumptions are being made:
  (1) The electronic state is orbitally nondegenerate
      but the spin degeneracy is treated
  (2) There are no thermally accessible electronically excited states
  (3) Hindered rotations indicated by low frequency modes are not
      treated as such but are treated as vibrations and this may
      cause some error
  (4) All equations used are the standard statistical mechanics
      equations for an ideal gas
  (5) All vibrations are strictly harmonic

freq.      13.80  E(vib)   ...       0.57 
freq.      26.10  E(vib)   ...       0.56 
freq.      28.33  E(vib)   ...       0.55 
freq.      37.36  E(vib)   ...       0.54 
freq.      48.49  E(vib)   ...       0.53 
freq.      55.70  E(vib)   ...       0.52 
freq.      73.95  E(vib)   ...       0.49 
freq.      87.68  E(vib)   ...       0.48 
freq.     106.05  E(vib)   ...       0.45 
freq.     124.74  E(vib)   ...       0.43 
freq.     158.55  E(vib)   ...       0.39 
freq.     178.92  E(vib)   ...       0.37 
freq.     190.46  E(vib)   ...       0.36 
freq.     202.39  E(vib)   ...       0.35 
freq.     217.49  E(vib)   ...       0.33 
freq.     229.85  E(vib)   ...       0.32 
freq.     234.49  E(vib)   ...       0.32 
freq.     245.29  E(vib)   ...       0.31 
freq.     260.72  E(vib)   ...       0.30 
freq.     283.62  E(vib)   ...       0.28 
freq.     287.99  E(vib)   ...       0.27 
freq.     308.85  E(vib)   ...       0.26 
freq.     328.78  E(vib)   ...       0.24 
freq.     343.70  E(vib)   ...       0.23 
freq.     355.77  E(vib)   ...       0.22 
freq.     364.68  E(vib)   ...       0.22 
freq.     366.54  E(vib)   ...       0.22 
freq.     369.48  E(vib)   ...       0.21 
freq.     392.18  E(vib)   ...       0.20 
freq.     446.96  E(vib)   ...       0.17 
freq.     464.92  E(vib)   ...       0.16 
freq.     503.63  E(vib)   ...       0.14 
freq.     523.78  E(vib)   ...       0.13 
freq.     534.23  E(vib)   ...       0.13 
freq.     538.80  E(vib)   ...       0.12 
freq.     568.77  E(vib)   ...       0.11 
freq.     588.67  E(vib)   ...       0.10 
freq.     600.47  E(vib)   ...       0.10 
freq.     624.35  E(vib)   ...       0.09 
freq.     665.07  E(vib)   ...       0.08 
freq.     688.29  E(vib)   ...       0.07 
freq.     698.22  E(vib)   ...       0.07 
freq.     723.89  E(vib)   ...       0.06 
freq.     774.50  E(vib)   ...       0.05 
freq.     792.38  E(vib)   ...       0.05 
freq.     867.51  E(vib)   ...       0.04 
freq.    1000.24  E(vib)   ...       0.02 
freq.    1036.83  E(vib)   ...       0.02 
freq.    1067.36  E(vib)   ...       0.02 
freq.    1082.36  E(vib)   ...       0.02 
freq.    1104.84  E(vib)   ...       0.02 
freq.    1107.50  E(vib)   ...       0.02 
freq.    1113.92  E(vib)   ...       0.01 
freq.    1130.11  E(vib)   ...       0.01 
freq.    1143.41  E(vib)   ...       0.01 
freq.    1149.83  E(vib)   ...       0.01 
freq.    1160.79  E(vib)   ...       0.01 
freq.    1181.56  E(vib)   ...       0.01 
freq.    1213.39  E(vib)   ...       0.01 
freq.    1230.89  E(vib)   ...       0.01 
freq.    1244.43  E(vib)   ...       0.01 
freq.    1297.75  E(vib)   ...       0.01 
freq.    1334.46  E(vib)   ...       0.01 
freq.    1362.44  E(vib)   ...       0.01 
freq.    1402.72  E(vib)   ...       0.00 
freq.    1729.13  E(vib)   ...       0.00 

------------
INNER ENERGY
------------

The inner energy is: U= E(el) + E(ZPE) + E(vib) + E(rot) + E(trans)
    E(el)   - is the total energy from the electronic structure calculation
              = E(kin-el) + E(nuc-el) + E(el-el) + E(nuc-nuc)
    E(ZPE)  - the the zero temperature vibrational energy from the frequency calculation
    E(vib)  - the the finite temperature correction to E(ZPE) due to population
              of excited vibrational states
    E(rot)  - is the rotational thermal energy
    E(trans)- is the translational thermal energy

Summary of contributions to the inner energy U:
Electronic energy                ...  -1853.28500602 Eh
Zero point energy                ...      0.09253988 Eh      58.07 kcal/mol
Thermal vibrational correction   ...      0.01984295 Eh      12.45 kcal/mol
Thermal rotational correction    ...      0.00141627 Eh       0.89 kcal/mol
Thermal translational correction ...      0.00141627 Eh       0.89 kcal/mol
-----------------------------------------------------------------------
Total thermal energy                  -1853.16979064 Eh


Summary of corrections to the electronic energy:
(perhaps to be used in another calculation)
Total thermal correction                  0.02267550 Eh      14.23 kcal/mol
Non-thermal (ZPE) correction              0.09253988 Eh      58.07 kcal/mol
-----------------------------------------------------------------------
Total correction                          0.11521537 Eh      72.30 kcal/mol


--------
ENTHALPY
--------

The enthalpy is H = U + kB*T
                kB is Boltzmann's constant
Total thermal energy              ...  -1853.16979064 Eh 
Thermal Enthalpy correction       ...      0.00094421 Eh       0.59 kcal/mol
-----------------------------------------------------------------------
Total Enthalpy                    ...  -1853.16884643 Eh


Note: Only C1 symmetry has been detected, increase convergence thresholds 
      if your molecule has a higher symmetry. Symmetry factor of 1.0 is   
      used for the rotational entropy correction. 
 

Note: Rotational entropy computed according to Herzberg 
Infrared and Raman Spectra, Chapter V,1, Van Nostrand Reinhold, 1945 
Point Group:  C1, Symmetry Number:   1  
Rotational constants in cm-1:     0.018771     0.004130     0.004036 

Vibrational entropy computed according to the QRRHO of S. Grimme
Chem.Eur.J. 2012 18 9955 using a reference frequency of 100.0 cm-1


-------
ENTROPY
-------

The entropy contributions are T*S = T*(S(el)+S(vib)+S(rot)+S(trans))
     S(el)   - electronic entropy
     S(vib)  - vibrational entropy
     S(rot)  - rotational entropy
     S(trans)- translational entropy
The entropies will be listed as multiplied by the temperature to get
units of energy

Electronic entropy                ...      0.00065446 Eh      0.41 kcal/mol
Vibrational entropy               ...      0.03613636 Eh     22.68 kcal/mol
Rotational entropy                ...      0.01658149 Eh     10.41 kcal/mol
Translational entropy             ...      0.02081341 Eh     13.06 kcal/mol
-----------------------------------------------------------------------
Final entropy term                ...      0.07418572 Eh     46.55 kcal/mol

In case the symmetry of your molecule has not been determined correctly
or in case you have a reason to use a different symmetry number we print 
out the resulting rotational entropy values for sn=1,12:

 non-linear molecules -----------------------------------
|  sn= 1 | S(rot)=       0.01658149 Eh     10.41 kcal/mol|
|  sn= 2 | S(rot)=       0.01592704 Eh      9.99 kcal/mol|
|  sn= 3 | S(rot)=       0.01554420 Eh      9.75 kcal/mol|
|  sn= 4 | S(rot)=       0.01527258 Eh      9.58 kcal/mol|
|  sn= 5 | S(rot)=       0.01506189 Eh      9.45 kcal/mol|
|  sn= 6 | S(rot)=       0.01488975 Eh      9.34 kcal/mol|
|  sn= 7 | S(rot)=       0.01474420 Eh      9.25 kcal/mol|
|  sn= 8 | S(rot)=       0.01461812 Eh      9.17 kcal/mol|
|  sn= 9 | S(rot)=       0.01450692 Eh      9.10 kcal/mol|
|  sn=10 | S(rot)=       0.01440744 Eh      9.04 kcal/mol|
|  sn=11 | S(rot)=       0.01431745 Eh      8.98 kcal/mol|
|  sn=12 | S(rot)=       0.01423529 Eh      8.93 kcal/mol|
 linear molecules ---------------------------------------
|  Dinfh | S(rot)=       0.01053049 Eh      6.61 kcal/mol|
|  Cinfv | S(rot)=       0.01118495 Eh      7.02 kcal/mol|
 --------------------------------------------------------


-------------------
GIBBS FREE ENERGY
-------------------

The Gibbs free energy is G = H - T*S

Total enthalpy                    ...  -1853.16884643 Eh 
Total entropy correction          ...     -0.07418572 Eh    -46.55 kcal/mol
-----------------------------------------------------------------------
Final Gibbs free energy         ...  -1853.24303216 Eh

For completeness - the Gibbs free energy minus the electronic energy
G-E(el)                           ...      0.04197386 Eh     26.34 kcal/mol


Maximum memory used throughout the entire PROP-calculation: 523.1 MB

--------------------------------
SUGGESTED CITATIONS FOR THIS RUN
--------------------------------

Below you find a list of papers that are relevant to this ORCA run
We neither can nor want to force you to cite these papers, but we appreciate if you do
You receive ORCA, which is the product of decades of hard work by many enthusiastic individuals, for free
The only thing we kindly ask in return is that you cite our papers,
We deeply appreciate it, if you show your appreciation for ORCA by not just citing the generic ORCA reference.

Please note that relegating all ORCA citations to the supporting information does *not* help us.
SI sections are not indexed - citations you put there will not count into any citation statistics
But we need these citations in order to attract the funding resources that allow us to do what we are doing

Therefore, if you are a happy ORCA user, please consider citing a few of the papers listed below in the main body of your paper

In addition to the list printed below, the program has created the file rf_mecn_freq_B3L_C5_D_B.bibtex that contains the list in bibtex format
You can import this file easily into all common literature databanks and citation aid programs


List of essential papers. We consider these as the minimum necessary citations

  1. Neese,F.
     Software update: the ORCA program system, version 5.0
     WIRES Comput. Molec. Sci., 2022 12(1)e1606
     doi.org/10.1002/wcms.1606

List of papers to cite with high priority. The work reported in these papers was absolutely
necessary for this run to complete.
Our perspective: the developers of density functionals and basis sets usually get cited in chemistry papers
Good! But without the algorithms to do something with them, the functionals or basis sets would not do anything.
Hence, in our opinion, the algorithm design and method developments papers are equally worthy of getting cited

  1. Neese,F.
     An improvement of the resolution of the identity approximation for the formation of the Coulomb matrix
     J. Comp. Chem., 2003 24(14)1740-1747
     doi.org/10.1002/jcc.10318
  2. Neese,F.; Wennmohs,F.; Hansen,A.; Becker,U.
     Efficient, approximate and parallel Hartree-Fock and hybrid DFT calculations. A 'chain-of-spheres' algorithm for the Hartree-Fock exchange
     Chem. Phys., 2009 356(1-3)98-109
     doi.org/10.1016/j.chemphys.2008.10.036
  3. Bykov,D.; Petrenko,T.; Izsak,R.; Kossmann,S.; Becker,U.; Valeev,E.; Neese,F.
     Efficient implementation of the analytic second derivatives of Hartree-Fock and hybrid DFT energies: a detailed analysis of different approximations
     Molec. Phys., 2015 113 1961-1977
     doi.org/10.1080/00268976.2015.1025114
  4. Garcia-Rates,M.; Neese,F.
     Efficient implementation of the analytical second derivatives of hartree-fock and hybrid DFT energies within the framework of the conductor-like polarizable continuum model
     J. Comput. Chem., 2019 40 1816-1828
     doi.org/10.1002/jcc.25833
  5. Garcia-Rates,M.; Neese,F.
     Effect of the Solute Cavity on the Solvation Energy and its Derivatives within the Framework of the Gaussian Charge Scheme
     J. Comput. Chem., 2020 41 922-939
     doi.org/10.1002/jcc.26139
  6. Helmich-Paris,B.; de Souza,B.; Neese,F.; Izsák,R.
     An improved chain of spheres for exchange algorithm
     J. Chem. Phys., 2021 155 104109
     doi.org/doi: 10.1063/5.0058766.
  7. Neese,F.
     The SHARK Integral Generation and Digestion System
     J. Comp. Chem., 2022  1-16
     doi.org/10.1002/jcc.26942
  8. Grimme,S.; Antony,J.; Ehrlich,S.; Krieg,H.
     A consistent and accurate ab initio parametrization of density functional dispersion correction (DFT-D) for the 94 elements H-Pu
     J. Chem. Phys., 2010 132 154104
     doi.org/10.1063/1.3382344
  9. Grimme,S.; Ehrlich,S.; Goerigk,L.
     Effect of the damping function in dispersion corrected density functional theory
     J. Comput. Chem., 2011 32(7)1456-1465
     doi.org/10.1002/jcc.21759

List of suggested additional citations. These are papers that are important in the 'surrounding' of 
of this run, or papers that preceded the highly important papers. If you like your results we are grateful for a citation.

  1. Izsak,R.; Neese,F.
     An overlap fitted chain of spheres exchange method
     J. Chem. Phys., 2011 135 144105
     doi.org/10.1063/1.3646921
  2. Izsak,R.; Hansen,A.; Neese,F.
     The resolution of identity and chain of spheres approximations for the LPNO-CCSD singles Fock term
     Molec. Phys., 2012 110 2413-2417
     doi.org/10.1080/00268976.2012.687466
  3. Neese,F.
     The ORCA program system
     WIRES Comput. Molec. Sci., 2012 2(1)73-78
     doi.org/10.1002/wcms.81
  4. Izsak,R.; Neese,F.; Klopper,W.
     Robust fitting techniques in the chain of spheres approximation to the Fock exchange: The role of the complementary space
     J. Chem. Phys., 2013 139 
     doi.org/10.1063/1.4819264
  5. Neese,F.
     Software update: the ORCA program system, version 4.0
     WIRES Comput. Molec. Sci., 2018 8(1)1-6
     doi.org/10.1002/wcms.1327
  6. Neese,F.; Wennmohs,F.; Becker,U.; Riplinger,C.
     The ORCA quantum chemistry program package
     J. Chem. Phys., 2020 152 Art. No. L224108
     doi.org/10.1063/5.0004608

List of optional additional citations

  1. Neese,F.
     Approximate second-order SCF convergence for spin unrestricted wavefunctions
     Chem. Phys. Lett., 2000 325(1-3)93-98
     doi.org/10.1016/s0009-2614(00)00662-x

Timings for individual modules:

Sum of individual times          ...     1194.277 sec (=  19.905 min)
Startup calculation              ...        4.359 sec (=   0.073 min)   0.4 %
SCF iterations                   ...      109.033 sec (=   1.817 min)   9.1 %
Property integrals               ...      253.031 sec (=   4.217 min)  21.2 %
SCF Response                     ...      561.803 sec (=   9.363 min)  47.0 %
Property calculations            ...      266.052 sec (=   4.434 min)  22.3 %
                             ****ORCA TERMINATED NORMALLY****
TOTAL RUN TIME: 0 days 0 hours 19 minutes 55 seconds 115 msec
