
                                 *****************
                                 * O   R   C   A *
                                 *****************

                                            #,                                       
                                            ###                                      
                                            ####                                     
                                            #####                                    
                                            ######                                   
                                           ########,                                 
                                     ,,################,,,,,                         
                               ,,#################################,,                 
                          ,,##########################################,,             
                       ,#########################################, ''#####,          
                    ,#############################################,,   '####,        
                  ,##################################################,,,,####,       
                ,###########''''           ''''###############################       
              ,#####''   ,,,,##########,,,,          '''####'''          '####       
            ,##' ,,,,###########################,,,                        '##       
           ' ,,###''''                  '''############,,,                           
         ,,##''                                '''############,,,,        ,,,,,,###''
      ,#''                                            '''#######################'''  
     '                                                          ''''####''''         
             ,#######,   #######,   ,#######,      ##                                
            ,#'     '#,  ##    ##  ,#'     '#,    #''#        ,####,   ,####,        
            ##       ##  ##   ,#'  ##            #'  '#       #'       #'  '#        
            ##       ##  #######   ##           ,######,      #####,   #    #        
            '#,     ,#'  ##    ##  '#,     ,#' ,#      #,     #,   #   #,  ,#        
             '#######'   ##     ##  '#######'  #'      '#     '####' # '####'        



                #########################################################
                #                        -***-                          #
                #          Department of theory and spectroscopy        #
                #                                                       #
                #                      Frank Neese                      #
                #                                                       #
                #     Directorship, Architecture, Infrastructure        #
                #                    SHARK, DRIVERS                     #
                #        Core code/Algorithms in most modules           #
                #                                                       #
                #        Max Planck Institute fuer Kohlenforschung      #
                #                Kaiser Wilhelm Platz 1                 #
                #                 D-45470 Muelheim/Ruhr                 #
                #                      Germany                          #
                #                                                       #
                #                  All rights reserved                  #
                #                        -***-                          #
                #########################################################


                         Program Version 6.0.1  -  RELEASE   -


 With contributions from (in alphabetic order):
[Max-Planck-Institut fuer Kohlenforschung]                               
  Daniel Aravena         : Magnetic Suceptibility                        
  Michael Atanasov       : Ab Initio Ligand Field Theory (pilot matlab implementation)
  Alexander A. Auer      : GIAO ZORA, VPT2 properties, NMR spectrum      
  Ute Becker             : All parallelization in ORCA, NUMFREQ, NUMCALC 
  Giovanni Bistoni       : ED, misc. LED, open-shell LED, HFLD           
  Martin Brehm           : Molecular dynamics                            
  Dmytro Bykov           : pre 5.0 version of the SCF Hessian            
  Marcos Casanova-Páez   : Triplet and SCS-CIS(D). UHF-(DLPNO)-IP/EA/STEOM-CCSD. UHF-CVS-IP/STEOM-CCSD   
  Vijay G. Chilkuri      : MRCI spin determinant printing, contributions to CSF-ICE 
  Pauline Colinet        : FMM embedding                                 
  Dipayan Datta          : RHF DLPNO-CCSD density                        
  Achintya Kumar Dutta   : EOM-CC, STEOM-CC                              
  Nicolas Foglia         : Exact transition moments, OPA infrastructure, MCD improvements    
  Dmitry Ganyushin       : Spin-Orbit,Spin-Spin,Magnetic field MRCI      
  Miquel Garcia-Rates    : C-PCM and meta-GGA Hessian, CCSD/C-PCM, Gaussian charge scheme 
  Tiago L. C. Gouveia    : GS-ROHF, GS-ROCIS                             
  Yang Guo               : DLPNO-NEVPT2, F12-NEVPT2, CIM, IAO-localization        
  Andreas Hansen         : Spin unrestricted coupled pair/coupled cluster methods 
  Ingolf Harden          : AUTO-CI MPn and infrastructure                
  Benjamin Helmich-Paris : MC-RPA, TRAH-(SCF,CASSCF), AVAS, COSX integrals, SCF dyn. polar. 
  Lee Huntington         : MR-EOM, pCC                                   
  Robert Izsak           : Overlap fitted RIJCOSX, COSX-SCS-MP3, EOM     
  Riya Kayal             : Wick's Theorem for AUTO-CI, AUTO-CI UHF-CCSDT 
  Emily Kempfer          : AUTO-CI, RHF CISDT and CCSDT                  
  Christian Kollmar      : KDIIS, OOCD, Brueckner-CCSD(T), CCSD density, CASPT2, CASPT2-K, improved NEVPT2 
  Axel Koslowski         : Symmetry handling                             
  Simone Kossmann        : meta-GGA functionals, TD-DFT gradient, OOMP2, (MP2 Hessian; deprecated post 5.0) 
  Lucas Lang             : DCDCAS                                        
  Marvin Lechner         : AUTO-CI (C++ implementation), FIC-MRCC        
  Spencer Leger          : CASSCF response                               
  Dagmar Lenk            : GEPOL surface, SMD, ORCA-2-JSON               
  Dimitrios Liakos       : Extrapolation schemes; Compound Job, initial MDCI parallelization 
  Dimitrios Manganas     : Further ROCIS development; embedding schemes. LFT, Crystal Embedding 
  Dimitrios Pantazis     : SARC Basis sets                               
  Anastasios Papadopoulos: AUTO-CI, single reference methods and gradients 
  Taras Petrenko         : pre 6.0 DFT Hessian and TD-DFT gradient, (ASA, deprecated), ECA, 1-Electron XAS/XES, NRVS 
  Peter Pinski           : DLPNO-MP2, DLPNO-MP2 Gradient                 
  Christoph Reimann      : Effective Core Potentials                     
  Marius Retegan         : Local ZFS, SOC                                
  Christoph Riplinger    : Optimizer, TS searches, QM/MM, DLPNO-CCSD(T), (RO)-DLPNO pert. Triples 
  Michael Roemelt        : Original ROCIS implementation                 
  Masaaki Saitow         : Open-shell DLPNO-CCSD energy and density      
  Barbara Sandhoefer     : DKH picture change effects                    
  Kantharuban Sivalingam : CASSCF convergence/infrastructure, NEVPT2 and variants, FIC-MRCI 
  Bernardo de Souza      : ESD, SOC TD-DFT                               
  Georgi L. Stoychev     : AutoAux, RI-MP2 NMR, DLPNO-MP2 response, X2C  
  Van Anh Tran           : RI-MP2 g-tensors                              
  Willem Van den Heuvel  : Paramagnetic NMR                              
  Zikuan Wang            : NOTCH, Electric field optimization            
  Frank Wennmohs         : Technical directorship and infrastructure     
  Hang Xu                : AUTO-CI-Response properties                   
                                                                         
[FACCTs GmbH]                                                            
  Markus Bursch, Miquel Garcia-Rates, Christoph Riplinger, Bernardo de Souza, Georgi L. Stoychev 
                                                                 
  APM, Basis sets (HGBS, AHGBS, def-TZVP (Ac-Lr), def2-XVPD (La-Lu)), CI-OPT, improved COSX, DLPNO-Multilevel,           
  DOCKER, DRACO, updates on ESD, GOAT, IRC, LR-CPCM, MBIS, meta-GGA TD-DFT gradient, ML-optimized integration grids, 
  MM, NACMEs, nearIR, NEB, NEB-TS, NL-DFT gradient (VV10), 2- and 3-layer-ONIOM, interface openCOSMO-RS, QMMM,   
  Crystal-QMMM, SF, symmetry and pop. for TD-DFT, r2SCAN hybrids, SOLVATOR                                   
                                                                         
[Other institutions]                                                     
  V. Asgeirsson          : NEB                                           
  Christoph Bannwarth    : sTDA-DFT, sTD-DFT, PBEh-3c, B97-3c, D3        
  Sebastian Ehlert       : rSCAN, r2SCAN, r2SCAN-3c, D4, dhf basis sets  
  Marvin Friede          : D4 for Fr, Ra, Ac-Lr                          
  Lars Goerigk           : TD-DFT with DH, B97 family of functionals     
  Stefan Grimme          : VdW corrections, initial TS optimization, DFT functionals, gCP, sTDA/sTD-DF 
  Waldemar Hujo          : DFT-NL                                        
  H. Jonsson             : NEB                                           
  Holger Kruse           : gCP                                           
  Marcel Mueller         : wB97X-3c, vDZP basis set                      
  Hagen Neugebauer       : wr2SCAN                                       
  Tobias Risthaus        : range-separated hybrid DFT                    
  Lukas Wittmann         : regularized MP2, r2SCAN double-hybrids, wr2SCAN        
                                                                         
We gratefully acknowledge several colleagues who have allowed us to      
interface, adapt or use parts of their codes:                            
  Ed Valeev, F. Pavosevic, A. Kumar             : LibInt (2-el integral package), F12 methods 
  Garnet Chan, S. Sharma, J. Yang, R. Olivares  : DMRG                   
  Ulf Ekstrom                                   : XCFun DFT Library      
  Mihaly Kallay                                 : mrcc  (arbitrary order and MRCC methods)
  Frank Weinhold                                : gennbo (NPA and NBO analysis)           
  Simon Mueller                                 : openCOSMO-RS                            
  Christopher J. Cramer and Donald G. Truhlar   : smd solvation model                     
  S Lehtola, MJT Oliveira, MAL Marques          : LibXC Library                           
  Liviu Ungur et al                             : ANISO software                          


 Your calculation uses the libint2 library for the computation of 2-el integrals
 For citations please refer to: http://libint.valeyev.net

 Your ORCA version has been built with support for libXC version: 6.2.2
 For citations please refer to: https://libxc.gitlab.io

 This ORCA versions uses:
   CBLAS   interface :  Fast vector & matrix operations
   LAPACKE interface :  Fast linear algebra routines
   SCALAPACK package :  Parallel linear algebra routines
   Shared memory     :  Shared parallel matrices
   BLAS/LAPACK       :  OpenBLAS 0.3.27  USE64BITINT DYNAMIC_ARCH NO_AFFINITY SkylakeX SINGLE_THREADED
        Core in use  :  SkylakeX
   Copyright (c) 2011-2014, The OpenBLAS Project


NOTE: MaxCore=8000 MB was set to SCF,MP2,MDCI,CIPSI,MRCI and CIS
      => If you want to overwrite this, your respective input block should be placed after the MaxCore statement
Your calculation utilizes the atom-pairwise dispersion correction
with the Becke-Johnson damping scheme (D3BJ)


Your calculation utilizes the SMD solvation module
Please cite in your paper:
A.V. Marenich, C.J. Cramer, D.G. Truhlar J. Phys. Chem. B, 113, (2009), 6378 

Warning: RI is on but no J-basis has been assigned. Assigning Def2/J (nothing to worry about!)
================================================================================

----- Orbital basis set information -----
Your calculation utilizes the basis: def2-TZVP
   F. Weigend and R. Ahlrichs, Phys. Chem. Chem. Phys. 7, 3297 (2005).

----- AuxJ basis set information -----
Your calculation utilizes the auxiliary basis: def2/J
   F. Weigend, Phys. Chem. Chem. Phys. 8, 1057 (2006).

================================================================================
                                        WARNINGS
                       Please study these warnings very carefully!
================================================================================


WARNING: your system is open-shell and RHF/RKS was chosen
  ===> : WILL SWITCH to UHF/UKS


================================================================================
                                       INPUT FILE
================================================================================
NAME = rf_mecn_freq_B3L_P_B.inp
|  1> !B3LYP def2-TZVP freq d3 TightSCF SlowConv defgrid2
|  2>  
|  3> %pal
|  4> nprocs 20
|  5> end
|  6>  
|  7> %scf
|  8> MaxIter 1500
|  9> end
| 10>  
| 11> %maxcore 8000
| 12>  
| 13> !CPCM
| 14> %cpcm smd true
| 15> SMDsolvent "ACETONITRILE"
| 16> end
| 17>  
| 18> * xyz -1 2
| 19> 6        4.874683000      0.060088000     -0.249909000
| 20> 8        5.251119000     -0.220937000     -1.422788000
| 21> 8        5.229338000      1.308589000      0.319938000
| 22> 1        5.679260000      1.781887000     -0.396983000
| 23> 6        3.585020000     -0.430231000      0.312171000
| 24> 6        2.249923000      0.224047000     -0.197733000
| 25> 6        0.891316000     -0.461624000      0.176534000
| 26> 6       -0.381951000      0.430294000     -0.025031000
| 27> 6       -1.730211000     -0.373211000     -0.043983000
| 28> 6       -2.994787000      0.517715000      0.196557000
| 29> 6       -4.349278000     -0.164765000     -0.182434000
| 30> 9        3.449506000     -1.777749000      0.033509000
| 31> 9        3.554115000     -0.281553000      1.689018000
| 32> 9        2.206340000      1.503986000      0.263679000
| 33> 9        2.300331000      0.270848000     -1.556032000
| 34> 9        0.748579000     -1.575487000     -0.581171000
| 35> 9        0.921184000     -0.832266000      1.477874000
| 36> 9       -0.436506000      1.335312000      0.976204000
| 37> 9       -0.280105000      1.092915000     -1.197568000
| 38> 9       -1.700476000     -1.318486000      0.918524000
| 39> 9       -1.852499000     -0.982273000     -1.241386000
| 40> 9       -2.895307000      1.649954000     -0.529781000
| 41> 9       -3.058069000      0.841736000      1.501819000
| 42> 9       -4.450315000     -1.365873000      0.392047000
| 43> 9       -5.351121000      0.603966000      0.252496000
| 44> 9       -4.465119000     -0.303143000     -1.502696000
| 45> *
| 46> 
| 47>                          ****END OF INPUT****
================================================================================

                       ****************************
                       * Single Point Calculation *
                       ****************************

---------------------------------
CARTESIAN COORDINATES (ANGSTROEM)
---------------------------------
  C      4.874683    0.060088   -0.249909
  O      5.251119   -0.220937   -1.422788
  O      5.229338    1.308589    0.319938
  H      5.679260    1.781887   -0.396983
  C      3.585020   -0.430231    0.312171
  C      2.249923    0.224047   -0.197733
  C      0.891316   -0.461624    0.176534
  C     -0.381951    0.430294   -0.025031
  C     -1.730211   -0.373211   -0.043983
  C     -2.994787    0.517715    0.196557
  C     -4.349278   -0.164765   -0.182434
  F      3.449506   -1.777749    0.033509
  F      3.554115   -0.281553    1.689018
  F      2.206340    1.503986    0.263679
  F      2.300331    0.270848   -1.556032
  F      0.748579   -1.575487   -0.581171
  F      0.921184   -0.832266    1.477874
  F     -0.436506    1.335312    0.976204
  F     -0.280105    1.092915   -1.197568
  F     -1.700476   -1.318486    0.918524
  F     -1.852499   -0.982273   -1.241386
  F     -2.895307    1.649954   -0.529781
  F     -3.058069    0.841736    1.501819
  F     -4.450315   -1.365873    0.392047
  F     -5.351121    0.603966    0.252496
  F     -4.465119   -0.303143   -1.502696

----------------------------
CARTESIAN COORDINATES (A.U.)
----------------------------
  NO LB      ZA    FRAG     MASS         X           Y           Z
   0 C     6.0000    0    12.011    9.211816    0.113550   -0.472260
   1 O     8.0000    0    15.999    9.923177   -0.417510   -2.688680
   2 O     8.0000    0    15.999    9.882017    2.472875    0.604595
   3 H     1.0000    0     1.008   10.732246    3.367278   -0.750189
   4 C     6.0000    0    12.011    6.774706   -0.813019    0.589918
   5 C     6.0000    0    12.011    4.251738    0.423387   -0.373661
   6 C     6.0000    0    12.011    1.684343   -0.872343    0.333601
   7 C     6.0000    0    12.011   -0.721783    0.813138   -0.047302
   8 C     6.0000    0    12.011   -3.269625   -0.705267   -0.083116
   9 C     6.0000    0    12.011   -5.659327    0.978340    0.371439
  10 C     6.0000    0    12.011   -8.218944   -0.311361   -0.344750
  11 F     9.0000    0    18.998    6.518622   -3.359459    0.063323
  12 F     9.0000    0    18.998    6.716304   -0.532058    3.191781
  13 F     9.0000    0    18.998    4.169378    2.842122    0.498281
  14 F     9.0000    0    18.998    4.346996    0.511829   -2.940474
  15 F     9.0000    0    18.998    1.414609   -2.977239   -1.098254
  16 F     9.0000    0    18.998    1.740785   -1.572755    2.792777
  17 F     9.0000    0    18.998   -0.824877    2.523374    1.844758
  18 F     9.0000    0    18.998   -0.529322    2.065310   -2.263076
  19 F     9.0000    0    18.998   -3.213434   -2.491577    1.735759
  20 F     9.0000    0    18.998   -3.500716   -1.856227   -2.345880
  21 F     9.0000    0    18.998   -5.471337    3.117961   -1.001141
  22 F     9.0000    0    18.998   -5.778913    1.590651    2.838027
  23 F     9.0000    0    18.998   -8.409877   -2.581126    0.740861
  24 F     9.0000    0    18.998  -10.112153    1.141330    0.477148
  25 F     9.0000    0    18.998   -8.437852   -0.572857   -2.839684

--------------------------------
INTERNAL COORDINATES (ANGSTROEM)
--------------------------------
 C      0   0   0     0.000000000000     0.00000000     0.00000000
 O      1   0   0     1.263457265349     0.00000000     0.00000000
 O      1   2   0     1.417483869197   119.64052611     0.00000000
 H      3   1   2     0.969750753095   104.40405418     4.70829133
 C      1   2   3     1.489824587571   122.33991678   147.50308413
 C      5   1   2     1.571803355992   118.41777111   286.42129788
 C      6   5   1     1.567173726164   118.47439738   168.52152348
 C      7   6   5     1.567595298933   115.11905394   164.26892277
 C      8   7   6     1.569644702131   114.07780208   163.48431809
 C      9   8   7     1.565490686287   113.62014635   162.25338648
 C     10   9   8     1.563348648754   114.46737394   164.77032375
 F      5   1   2     1.382686267656   109.24119698    46.31679673
 F      5   1   2     1.385195989064   111.03842621   164.85897141
 F      6   5   1     1.361265718129   107.97640352   291.06807830
 F      6   5   1     1.360039511730   107.86853147    47.43438678
 F      7   6   5     1.354688709986   108.51237846   285.49555246
 F      7   6   5     1.353422840500   109.28772433    43.46914883
 F      8   7   6     1.350742519348   108.58518094   284.60519669
 F      8   7   6     1.350659917865   109.23907309    42.80247074
 F      9   8   7     1.349388276553   109.33301826    41.69793087
 F      9   8   7     1.348956937488   108.64553087   283.33747038
 F     10   9   8     1.348861858666   109.59648544    43.99782993
 F     10   9   8     1.346366632314   108.89835361   284.99654026
 F     11  10   9     1.335251782397   110.72924862    51.38245844
 F     11  10   9     1.335590076300   108.64414297   170.70882238
 F     11  10   9     1.332538688672   111.15188654   290.01662049

---------------------------
INTERNAL COORDINATES (A.U.)
---------------------------
 C      0   0   0     0.000000000000     0.00000000     0.00000000
 O      1   0   0     2.387588213422     0.00000000     0.00000000
 O      1   2   0     2.678656312034   119.64052611     0.00000000
 H      3   1   2     1.832563341514   104.40405418     4.70829133
 C      1   2   3     2.815360458091   122.33991678   147.50308413
 C      5   1   2     2.970277879204   118.41777111   286.42129788
 C      6   5   1     2.961529146727   118.47439738   168.52152348
 C      7   6   5     2.962325803806   115.11905394   164.26892277
 C      8   7   6     2.966198614589   114.07780208   163.48431809
 C      9   8   7     2.958348662287   113.62014635   162.25338648
 C     10   9   8     2.954300797982   114.46737394   164.77032375
 F      5   1   2     2.612898375003   109.24119698    46.31679673
 F      5   1   2     2.617641061136   111.03842621   164.85897141
 F      6   5   1     2.572419402760   107.97640352   291.06807830
 F      6   5   1     2.570102208481   107.86853147    47.43438678
 F      7   6   5     2.559990658588   108.51237846   285.49555246
 F      7   6   5     2.557598511939   109.28772433    43.46914883
 F      8   7   6     2.552533439010   108.58518094   284.60519669
 F      8   7   6     2.552377344829   109.23907309    42.80247074
 F      9   8   7     2.549974291009   109.33301826    41.69793087
 F      9   8   7     2.549159178305   108.64553087   283.33747038
 F     10   9   8     2.548979505372   109.59648544    43.99782993
 F     10   9   8     2.544264210924   108.89835361   284.99654026
 F     11  10   9     2.523260188560   110.72924862    51.38245844
 F     11  10   9     2.523899471389   108.64414297   170.70882238
 F     11  10   9     2.518133184446   111.15188654   290.01662049

---------------------
BASIS SET INFORMATION
---------------------
There are 4 groups of distinct atoms

 Group   1 Type C   : 11s6p2d1f contracted to 5s3p2d1f pattern {62111/411/11/1}
 Group   2 Type O   : 11s6p2d1f contracted to 5s3p2d1f pattern {62111/411/11/1}
 Group   3 Type H   : 5s1p contracted to 3s1p pattern {311/1}
 Group   4 Type F   : 11s6p2d1f contracted to 5s3p2d1f pattern {62111/411/11/1}

Atom   0C    basis set group =>   1
Atom   1O    basis set group =>   2
Atom   2O    basis set group =>   2
Atom   3H    basis set group =>   3
Atom   4C    basis set group =>   1
Atom   5C    basis set group =>   1
Atom   6C    basis set group =>   1
Atom   7C    basis set group =>   1
Atom   8C    basis set group =>   1
Atom   9C    basis set group =>   1
Atom  10C    basis set group =>   1
Atom  11F    basis set group =>   4
Atom  12F    basis set group =>   4
Atom  13F    basis set group =>   4
Atom  14F    basis set group =>   4
Atom  15F    basis set group =>   4
Atom  16F    basis set group =>   4
Atom  17F    basis set group =>   4
Atom  18F    basis set group =>   4
Atom  19F    basis set group =>   4
Atom  20F    basis set group =>   4
Atom  21F    basis set group =>   4
Atom  22F    basis set group =>   4
Atom  23F    basis set group =>   4
Atom  24F    basis set group =>   4
Atom  25F    basis set group =>   4
---------------------------------
AUXILIARY/J BASIS SET INFORMATION
---------------------------------
There are 4 groups of distinct atoms

 Group   1 Type C   : 12s5p4d2f1g contracted to 6s4p3d1f1g pattern {711111/2111/211/2/1}
 Group   2 Type O   : 12s5p4d2f1g contracted to 6s4p3d1f1g pattern {711111/2111/211/2/1}
 Group   3 Type H   : 5s2p1d contracted to 3s1p1d pattern {311/2/1}
 Group   4 Type F   : 12s5p4d2f1g contracted to 6s4p3d1f1g pattern {711111/2111/211/2/1}

Atom   0C    basis set group =>   1
Atom   1O    basis set group =>   2
Atom   2O    basis set group =>   2
Atom   3H    basis set group =>   3
Atom   4C    basis set group =>   1
Atom   5C    basis set group =>   1
Atom   6C    basis set group =>   1
Atom   7C    basis set group =>   1
Atom   8C    basis set group =>   1
Atom   9C    basis set group =>   1
Atom  10C    basis set group =>   1
Atom  11F    basis set group =>   4
Atom  12F    basis set group =>   4
Atom  13F    basis set group =>   4
Atom  14F    basis set group =>   4
Atom  15F    basis set group =>   4
Atom  16F    basis set group =>   4
Atom  17F    basis set group =>   4
Atom  18F    basis set group =>   4
Atom  19F    basis set group =>   4
Atom  20F    basis set group =>   4
Atom  21F    basis set group =>   4
Atom  22F    basis set group =>   4
Atom  23F    basis set group =>   4
Atom  24F    basis set group =>   4
Atom  25F    basis set group =>   4


           ************************************************************
           *        Program running with 20 parallel MPI-processes    *
           *              working on a common directory               *
           ************************************************************
------------------------------------------------------------------------------
                             ORCA STARTUP CALCULATIONS
                           -- RI-GTO INTEGRALS CHOSEN --
------------------------------------------------------------------------------
------------------------------------------------------------------------------
                   ___                                                        
                  /   \      - P O W E R E D   B Y -                         
                 /     \                                                     
                 |  |  |   _    _      __       _____    __    __             
                 |  |  |  | |  | |    /  \     |  _  \  |  |  /  |          
                  \  \/   | |  | |   /    \    | | | |  |  | /  /          
                 / \  \   | |__| |  /  /\  \   | |_| |  |  |/  /          
                |  |  |   |  __  | /  /__\  \  |    /   |      \           
                |  |  |   | |  | | |   __   |  |    \   |  |\   \          
                \     /   | |  | | |  |  |  |  | |\  \  |  | \   \       
                 \___/    |_|  |_| |__|  |__|  |_| \__\ |__|  \__/        
                                                                              
                      - O R C A' S   B I G   F R I E N D -                    
                                      &                                       
                       - I N T E G R A L  F E E D E R -                       
                                                                              
 v1 FN, 2020, v2 2021, v3 2022-2024                                           
------------------------------------------------------------------------------


----------------------
SHARK INTEGRAL PACKAGE
----------------------

Number of atoms                             ...     26
Number of basis functions                   ...    781
Number of shells                            ...    279
Maximum angular momentum                    ...      3
Integral batch strategy                     ... SHARK/LIBINT Hybrid
RI-J (if used) integral strategy            ... SPLIT-RIJ (Revised 2003 algorithm where possible)
Printlevel                                  ...      1
Contraction scheme used                     ... SEGMENTED contraction
Prescreening option                         ... SCHWARTZ
   Thresh                                   ... 2.500e-11
   Tcut                                     ... 2.500e-12
   Tpresel                                  ... 2.500e-12 
Coulomb Range Separation                    ... NOT USED
Exchange Range Separation                   ... NOT USED
Multipole approximations                    ... NOT USED
Finite Nucleus Model                        ... NOT USED
CABS basis                                  ... NOT available
Auxiliary Coulomb fitting basis             ... AVAILABLE
   # of basis functions in Aux-J            ...   1236
   # of shells in Aux-J                     ...    380
   Maximum angular momentum in Aux-J        ...      4
Auxiliary J/K fitting basis                 ... NOT available
Auxiliary Correlation fitting basis         ... NOT available
Auxiliary 'external' fitting basis          ... NOT available

Checking pre-screening integrals            ... done (  0.0 sec) Dimension = 279
Check shell pair data                       ... done (  0.0 sec)
Shell pair information
Shell pair cut-off parameter TPreSel        ...   2.5e-12
Total number of shell pairs                 ...     39060
Shell pairs after pre-screening             ...     23851
Total number of primitive shell pairs       ...    128824
Primitive shell pairs kept                  ...     50556
          la=0 lb=0:   4548 shell pairs
          la=1 lb=0:   6518 shell pairs
          la=1 lb=1:   2260 shell pairs
          la=2 lb=0:   3541 shell pairs
          la=2 lb=1:   2599 shell pairs
          la=2 lb=2:    721 shell pairs
          la=3 lb=0:   1597 shell pairs
          la=3 lb=1:   1244 shell pairs
          la=3 lb=2:    666 shell pairs
          la=3 lb=3:    157 shell pairs

Calculating one electron integrals          ... done (  0.0 sec)
Calculating RI/J V-Matrix + Cholesky decomp.... done (  0.1 sec)
Calculating Nuclear repulsion               ... done (  0.0 sec) ENN=   2887.283006533708 Eh

Diagonalization of the overlap matrix:
Smallest eigenvalue                        ... 6.031e-05
Time for diagonalization                   ...    0.107 sec
Threshold for overlap eigenvalues          ... 1.000e-07
Number of eigenvalues below threshold      ... 0
Time for construction of square roots      ...    0.050 sec
Total time needed                          ...    0.163 sec

-------------------
DFT GRID GENERATION
-------------------

General Integration Accuracy     IntAcc      ... 4.388
Radial Grid Type                 RadialGrid  ... OptM3 with GC (2021)
Angular Grid (max. ang.)         AngularGrid ... 4 (Lebedev-302)
Angular grid pruning method      GridPruning ... 4 (adaptive)
Weight generation scheme         WeightScheme... mBecke (2022)
Basis function cutoff            BFCut       ... 1.0000e-11
Integration weight cutoff        WCut        ... 1.0000e-14
Partially contracted basis set               ... off
Rotationally invariant grid construction     ... off
Angular grids for H and He will be reduced by one unit

Total number of grid points                  ...   154695
Total number of batches                      ...     2432
Average number of points per batch           ...       63
Average number of grid points per atom       ...     5950

--------------------
COSX GRID GENERATION
--------------------

GRIDX 1
-------
General Integration Accuracy     IntAcc      ... 3.816
Radial Grid Type                 RadialGrid  ... OptM3 with GC (2021)
Angular Grid (max. ang.)         AngularGrid ... 1 (Lebedev-50)
Angular grid pruning method      GridPruning ... 4 (adaptive)
Weight generation scheme         WeightScheme... mBecke (2022)
Basis function cutoff            BFCut       ... 1.0000e-11
Integration weight cutoff        WCut        ... 1.0000e-14
Partially contracted basis set               ... on
Rotationally invariant grid construction     ... off
Angular grids for H and He will be reduced by one unit

Total number of grid points                  ...    19430
Total number of batches                      ...      163
Average number of points per batch           ...      119
Average number of grid points per atom       ...      747
UseSFitting                                  ... on

GRIDX 2
-------
General Integration Accuracy     IntAcc      ... 4.020
Radial Grid Type                 RadialGrid  ... OptM3 with GC (2021)
Angular Grid (max. ang.)         AngularGrid ... 2 (Lebedev-110)
Angular grid pruning method      GridPruning ... 4 (adaptive)
Weight generation scheme         WeightScheme... mBecke (2022)
Basis function cutoff            BFCut       ... 1.0000e-11
Integration weight cutoff        WCut        ... 1.0000e-14
Partially contracted basis set               ... on
Rotationally invariant grid construction     ... off
Angular grids for H and He will be reduced by one unit

Total number of grid points                  ...    45824
Total number of batches                      ...      373
Average number of points per batch           ...      122
Average number of grid points per atom       ...     1762
UseSFitting                                  ... on

GRIDX 3
-------
General Integration Accuracy     IntAcc      ... 4.338
Radial Grid Type                 RadialGrid  ... OptM3 with GC (2021)
Angular Grid (max. ang.)         AngularGrid ... 3 (Lebedev-194)
Angular grid pruning method      GridPruning ... 4 (adaptive)
Weight generation scheme         WeightScheme... mBecke (2022)
Basis function cutoff            BFCut       ... 1.0000e-11
Integration weight cutoff        WCut        ... 1.0000e-14
Partially contracted basis set               ... on
Rotationally invariant grid construction     ... off
Angular grids for H and He will be reduced by one unit

Total number of grid points                  ...   101431
Total number of batches                      ...      804
Average number of points per batch           ...      126
Average number of grid points per atom       ...     3901
UseSFitting                                  ... on
Initializing property integral containers    ... done (  0.0 sec)

SHARK setup successfully completed in   3.4 seconds

Maximum memory used throughout the entire STARTUP-calculation: 60.9 MB


           ************************************************************
           *        Program running with 20 parallel MPI-processes    *
           *              working on a common directory               *
           ************************************************************
-------------------------------------------------------------------------------
                                 ORCA GUESS
                   Start orbitals & Density for SCF / CASSCF
-------------------------------------------------------------------------------

------------
SCF SETTINGS
------------
Hamiltonian:
 Density Functional     Method          .... DFT(GTOs)
 Exchange Functional    Exchange        .... B88
   X-Alpha parameter    XAlpha          ....  0.666667
   Becke's b parameter  XBeta           ....  0.004200
 Correlation Functional Correlation     .... LYP
 LDA part of GGA corr.  LDAOpt          .... VWN-5
 Gradients option       PostSCFGGA      .... off
 Hybrid DFT is turned on
   Fraction HF Exchange ScalHFX         ....  0.200000
   Scaling of DF-GGA-X  ScalDFX         ....  0.720000
   Scaling of DF-GGA-C  ScalDFC         ....  0.810000
   Scaling of DF-LDA-C  ScalLDAC        ....  1.000000
   Perturbative correction              ....  0.000000
   NL short-range parameter             ....  4.800000
 RI-approximation to the Coulomb term is turned on
   Number of AuxJ basis functions       .... 1236
   RIJ-COSX (HFX calculated with COS-X)).... on


General Settings:
 Integral files         IntName         .... rf_mecn_freq_B3L_P_B
 Hartree-Fock type      HFTyp           .... UHF
 Total Charge           Charge          ....   -1
 Multiplicity           Mult            ....    2
 Number of Electrons    NEL             ....  201
 Basis Dimension        Dim             ....  781
 Nuclear Repulsion      ENuc            ....   2887.2830065337 Eh

Convergence Acceleration:
 AO-DIIS                CNVDIIS         .... on
   Start iteration      DIISMaxIt       ....     0
   Startup error        DIISStart       ....  0.200000
   # of expansion vecs  DIISMaxEq       ....     5
   Bias factor          DIISBfac        ....   1.050
   Max. coefficient     DIISMaxC        ....  10.000
 MO-DIIS                CNVKDIIS        .... off
 Trust-Rad. Augm. Hess. CNVTRAH         .... auto
   Auto Start mean grad. ratio tolernc. ....  1.125000
   Auto Start start iteration           ....    50
   Auto Start num. interpolation iter.  ....    10
   Max. Number of Micro iterations      ....    24
   Max. Number of Macro iterations      .... Maxiter - #DIIS iter
   Number of Davidson start vectors     ....     2
   Converg. threshold    (grad. norm)   ....   1.000e-05
   Grad. Scal. Fac. for Micro threshold ....   0.100
   Minimum threshold for Micro iter.    ....   1.000e-02
   NR start threshold (gradient norm)   ....   1.000e-04
   Initial trust radius                 ....   0.400
   Minimum AH scaling param. (alpha)    ....   1.000
   Maximum AH scaling param. (alpha)    .... 1000.000
   Quad. conv. algorithm                .... NR
   White noise on init. David. guess    .... on
   Maximum white noise                  ....   0.010
   Pseudo random numbers                .... off
   Inactive MOs                         .... canonical
   Orbital update algorithm             .... Taylor
   Preconditioner                       .... Diag
   Full preconditioner red. dimension   ....   250
 SOSCF                  CNVSOSCF        .... on
   Start iteration      SOSCFMaxIt      ....   150
   Startup grad/error   SOSCFStart      ....  0.001000
   Hessian update       SOSCFHessUp     .... L-BFGS
 Level Shifting         CNVShift        .... on
   Level shift para.    LevelShift      ....    0.2500
   Turn off err/grad.   ShiftErr        ....    0.0000
 Zerner damping         CNVZerner       .... off
 Static damping         CNVDamp         .... on
   Fraction old density DampFac         ....    0.8500
   Max. Damping (<1)    DampMax         ....    0.9800
   Min. Damping (>=0)   DampMin         ....    0.0000
   Turn off err/grad.   DampErr         ....    0.0300

SCF Procedure:
 Maximum # iterations   MaxIter         ....  1500
 SCF integral mode      SCFMode         .... Direct
   Integral package                     .... SHARK and LIBINT hybrid scheme
 Reset frequency        DirectResetFreq ....    20
 Integral Threshold     Thresh          ....  2.500e-11 Eh
 Primitive CutOff       TCut            ....  2.500e-12 Eh

Convergence Tolerance:
 Convergence Check Mode ConvCheckMode   .... Total+1el-Energy
 Convergence forced     ConvForced      .... 0
 Energy Change          TolE            ....  1.000e-08 Eh
 1-El. energy change                    ....  1.000e-05 Eh
 Orbital Gradient       TolG            ....  1.000e-05
 Orbital Rotation angle TolX            ....  1.000e-05
 DIIS Error             TolErr          ....  5.000e-07

------------------------------
INITIAL GUESS: MODEL POTENTIAL
------------------------------
Loading Hartree-Fock densities                     ... done
Calculating cut-offs                               ... done
Initializing the effective Hamiltonian             ... done
Setting up the integral package (SHARK)            ... done
Starting the Coulomb interaction                   ... done (   0.1 sec)
Making the grid                                    ... done (   0.5 sec)
Mapping shells                                     ... done
Starting the XC term evaluation                    ... done (   0.1 sec)
  promolecular density results
     # of electrons  =    199.999115068
     EX              =   -208.631449892
     EC              =     -7.525946167
     EX+EC           =   -216.157396058
Transforming the Hamiltonian                       ... done (   0.0 sec)
Diagonalizing the Hamiltonian                      ... done (   0.1 sec)
Back transforming the eigenvectors                 ... done (   0.0 sec)
Now organizing SCF variables                       ... done
                      ------------------
                      INITIAL GUESS DONE (   1.1 sec)
                      ------------------
             **** ENERGY FILE WAS UPDATED (rf_mecn_freq_B3L_P_B.en.tmp) ****
Finished Guess after   1.8 sec
Maximum memory used throughout the entire GUESS-calculation: 49.4 MB


           ************************************************************
           *        Program running with 20 parallel MPI-processes    *
           *              working on a common directory               *
           ************************************************************

-------------------------------------------------------------------------------------------
                                      ORCA LEAN-SCF
                              memory conserving SCF solver
-------------------------------------------------------------------------------------------

--------------------
CPCM SOLVATION MODEL
--------------------
CPCM parameters:
  Epsilon                                         ...      35.6880
  Refrac                                          ...       1.3442
  Rsolv                                           ...       1.3000
  Surface type                                    ... GAUSSIAN VDW
  Discretization scheme                           ... Constant charge density
    Threshold for H atoms                         ...       5.0000 (charges/Ang^2)
    Threshold for non-H atoms                     ...       5.0000 (charges/Ang^2)
  Epsilon function type                           ...         CPCM
Solvent:                                          ... ACETONITRILE
SMD-CDS solvent descriptors:
  Soln                                            ...       1.3442
  Soln25                                          ...       1.3416
  Sola                                            ...       0.0700
  Solb                                            ...       0.3200
  Solg                                            ...      41.2500
  Solc                                            ...       0.0000
  Solh                                            ...       0.0000
Radii:
  Scheme                                          ... Element-dependent radii
  Radius for C  used is    3.4960 Bohr (=   1.8500 Ang.)
  Radius for O  used is    4.0969 Bohr (=   2.1680 Ang.)
  Radius for H  used is    2.2677 Bohr (=   1.2000 Ang.)
  Radius for F  used is    3.2692 Bohr (=   1.7300 Ang.)
Calculating surface                               ...        done! (  0.0s)
Cavity surface points                             ...         2186
Cavity Volume                                     ...    2178.7942
Cavity Surface-area                               ...    1119.0637
Calculating surface distance matrix               ...        done! (  0.0s)
Performing Cholesky decomposition & store         ...        done! (  0.1s)
Overall time for CPCM initialization              ...                 0.1s

----------------------------------------D-I-I-S--------------------------------------------
Iteration    Energy (Eh)           Delta-E    RMSDP     MaxDP     DIISErr   Damp  Time(sec)
-------------------------------------------------------------------------------------------
               ***  Starting incremental Fock matrix formation  ***
    1    -1953.1165930770825980     0.00e+00  6.02e-04  1.65e-01  1.84e-01  0.850   6.5
Warning: op=0 Small HOMO/LUMO gap (  -0.013) - skipping pre-diagonalization
         Will do a full diagonalization
    2    -1953.2910427719648396    -1.74e-01  9.62e-04  2.74e-01  1.25e-01  0.850   4.4
                               ***Turning on AO-DIIS***
    3    -1953.3860082589130798    -9.50e-02  6.17e-04  1.79e-01  7.05e-02  0.850   4.0
    4    -1953.4422406926482836    -5.62e-02  3.41e-04  1.01e-01  5.31e-02  0.850   4.5
    5    -1953.4821885913138431    -3.99e-02  1.84e-04  5.49e-02  4.56e-02  0.850   4.5
    6    -1953.5138670211740646    -3.17e-02  1.11e-04  3.24e-02  4.03e-02  0.850   4.7
    7    -1953.5402537055483663    -2.64e-02  8.65e-05  2.48e-02  3.49e-02  0.850   4.2
    8    -1953.5626068246788236    -2.24e-02  8.27e-05  2.47e-02  2.89e-02  0.850   4.2
    9    -1953.5813059159268050    -1.87e-02  5.19e-04  1.60e-01  2.39e-02  0.000   4.1
   10    -1953.6797905241814988    -9.85e-02  6.15e-05  1.14e-02  3.57e-03  0.000   4.4
   11    -1953.6799759618702410    -1.85e-04  4.13e-05  7.14e-03  1.70e-03  0.000   4.4
   12    -1953.6800325566496213    -5.66e-05  2.91e-05  4.35e-03  1.19e-03  0.000   4.0
                              *** Initializing SOSCF ***
---------------------------------------S-O-S-C-F--------------------------------------
Iteration    Energy (Eh)           Delta-E    RMSDP     MaxDP     MaxGrad    Time(sec)
--------------------------------------------------------------------------------------
   13    -1953.6800602216767402    -2.77e-05  2.62e-05  4.69e-03  2.59e-04     4.6
               *** Restarting incremental Fock matrix formation ***
   14    -1953.6800539531300274     6.27e-06  5.81e-05  8.48e-03  1.16e-03     7.3
   15    -1953.6800708947744170    -1.69e-05  4.08e-05  1.10e-02  1.26e-04     5.8
   16    -1953.6800712878380182    -3.93e-07  1.29e-05  3.53e-03  1.67e-04     5.8
   17    -1953.6800740922785735    -2.80e-06  5.01e-06  1.51e-03  4.88e-05     5.1
   18    -1953.6800740048170155     8.75e-08  2.72e-06  8.97e-04  6.54e-05     4.8
   19    -1953.6800742137897942    -2.09e-07  1.61e-06  4.68e-04  1.39e-05     4.2
   20    -1953.6800742514592457    -3.77e-08  6.80e-07  1.95e-04  1.21e-05     3.8
   21    -1953.6800742353666465     1.61e-08  2.55e-07  7.82e-05  8.07e-07     3.6
                  *** Gradient check signals convergence ***

               *****************************************************
               *                     SUCCESS                       *
               *           SCF CONVERGED AFTER  21 CYCLES          *
               *****************************************************

Recomputing exchange energy using gridx3       ... done (    9.770 sec)
Old exchange energy                            :    -41.879603298 Eh
New exchange energy                            :    -41.879607319 Eh
Exchange energy change after final integration :     -0.000004021 Eh
Total energy after final integration           :  -1953.680078257 Eh

SMD CDS free energy correction energy :                 3.55188     Kcal/mol
Total Energy after SMD CDS correction =             -1953.674417982 Eh
             **** ENERGY FILE WAS UPDATED (rf_mecn_freq_B3L_P_B.en.tmp) ****

----------------
TOTAL SCF ENERGY
----------------

Total Energy       :      -1953.67441798179175 Eh          -53162.18363 eV

Components:
Nuclear Repulsion  :       2887.28300653370798 Eh           78566.96488 eV
Electronic Energy  :      -4840.88238224675570 Eh         -131727.10650 eV
One Electron Energy:      -8490.93241373847741 Eh         -231050.01733 eV
Two Electron Energy:       3650.05003149172171 Eh           99322.91084 eV
CPCM Dielectric    :         -0.08069852231858 Eh              -2.19592 eV
SMD CDS (Gcds)     :          0.00566027477901 Eh               0.15402 eV

Virial components:
Potential Energy   :      -3900.75210780749057 Eh         -106144.86115 eV
Kinetic Energy     :       1947.07768982569860 Eh           52982.67753 eV
Virial Ratio       :          2.00338801486482

DFT components:
N(Alpha)           :      101.000013727076 electrons
N(Beta)            :       99.999976971547 electrons
N(Total)           :      200.999990698623 electrons
E(X)               :     -166.909208288603 Eh       
E(C)               :       -8.827239026575 Eh       
E(XC)              :     -175.736447315178 Eh       

CPCM Solvation Model Properties:
Surface-charge          :          0.98789000306221
Corrected charge        :          1.00000000000000
Outlying charge corr.   :          0.00000797555846 Eh               0.00022 eV
Free-energy (cav+disp)  :          0.00566027477901 Eh               0.15402 eV

---------------
SCF CONVERGENCE
---------------

  Last Energy change         ...   -1.6093e-08  Tolerance :   1.0000e-08
  Last MAX-Density change    ...    7.8176e-05  Tolerance :   1.0000e-07
  Last RMS-Density change    ...    2.5513e-07  Tolerance :   5.0000e-09
  Last DIIS Error            ...    2.5914e-04  Tolerance :   5.0000e-07
  Last Orbital Gradient      ...    8.0675e-07  Tolerance :   1.0000e-05
  Last Orbital Rotation      ...    1.0239e-05  Tolerance :   1.0000e-05


----------------------
UHF SPIN CONTAMINATION
----------------------

Warning: in a DFT calculation there is little theoretical justification to 
         calculate <S**2> as in Hartree-Fock theory. We will do it anyways
         but you should keep in mind that the values have only limited relevance

Expectation value of <S**2>     :     0.753511
Ideal value S*(S+1) for S=0.5   :     0.750000
Deviation                       :     0.003511

----------------
ORBITAL ENERGIES
----------------
                 SPIN UP ORBITALS
  NO   OCC          E(Eh)            E(eV) 
   0   1.0000     -24.743911      -673.3160 
   1   1.0000     -24.742983      -673.2908 
   2   1.0000     -24.742069      -673.2659 
   3   1.0000     -24.741917      -673.2618 
   4   1.0000     -24.740538      -673.2243 
   5   1.0000     -24.740127      -673.2131 
   6   1.0000     -24.739653      -673.2002 
   7   1.0000     -24.735399      -673.0844 
   8   1.0000     -24.734484      -673.0595 
   9   1.0000     -24.726911      -672.8534 
  10   1.0000     -24.725057      -672.8030 
  11   1.0000     -24.712342      -672.4570 
  12   1.0000     -24.709727      -672.3859 
  13   1.0000     -24.686326      -671.7491 
  14   1.0000     -24.683689      -671.6773 
  15   1.0000     -19.113990      -520.1181 
  16   1.0000     -19.051973      -518.4305 
  17   1.0000     -10.459960      -284.6300 
  18   1.0000     -10.405026      -283.1352 
  19   1.0000     -10.404204      -283.1128 
  20   1.0000     -10.398158      -282.9483 
  21   1.0000     -10.386791      -282.6389 
  22   1.0000     -10.366220      -282.0792 
  23   1.0000     -10.336619      -281.2737 
  24   1.0000     -10.224978      -278.2358 
  25   1.0000      -1.352436       -36.8016 
  26   1.0000      -1.325218       -36.0610 
  27   1.0000      -1.309556       -35.6348 
  28   1.0000      -1.303523       -35.4707 
  29   1.0000      -1.294779       -35.2327 
  30   1.0000      -1.278070       -34.7781 
  31   1.0000      -1.265236       -34.4288 
  32   1.0000      -1.259223       -34.2652 
  33   1.0000      -1.256754       -34.1980 
  34   1.0000      -1.249717       -34.0065 
  35   1.0000      -1.245956       -33.9042 
  36   1.0000      -1.243877       -33.8476 
  37   1.0000      -1.236873       -33.6570 
  38   1.0000      -1.220809       -33.2199 
  39   1.0000      -1.191299       -32.4169 
  40   1.0000      -1.029218       -28.0064 
  41   1.0000      -0.942938       -25.6586 
  42   1.0000      -0.842424       -22.9235 
  43   1.0000      -0.817622       -22.2486 
  44   1.0000      -0.787779       -21.4366 
  45   1.0000      -0.754926       -20.5426 
  46   1.0000      -0.717999       -19.5377 
  47   1.0000      -0.689638       -18.7660 
  48   1.0000      -0.668758       -18.1978 
  49   1.0000      -0.647452       -17.6181 
  50   1.0000      -0.643026       -17.4976 
  51   1.0000      -0.636445       -17.3185 
  52   1.0000      -0.625212       -17.0129 
  53   1.0000      -0.620255       -16.8780 
  54   1.0000      -0.619380       -16.8542 
  55   1.0000      -0.609532       -16.5862 
  56   1.0000      -0.604775       -16.4568 
  57   1.0000      -0.597097       -16.2478 
  58   1.0000      -0.590311       -16.0632 
  59   1.0000      -0.584009       -15.8917 
  60   1.0000      -0.579551       -15.7704 
  61   1.0000      -0.568605       -15.4725 
  62   1.0000      -0.564914       -15.3721 
  63   1.0000      -0.539999       -14.6941 
  64   1.0000      -0.514776       -14.0078 
  65   1.0000      -0.509936       -13.8761 
  66   1.0000      -0.505173       -13.7464 
  67   1.0000      -0.500429       -13.6174 
  68   1.0000      -0.498427       -13.5629 
  69   1.0000      -0.497922       -13.5492 
  70   1.0000      -0.490684       -13.3522 
  71   1.0000      -0.486322       -13.2335 
  72   1.0000      -0.483529       -13.1575 
  73   1.0000      -0.477533       -12.9943 
  74   1.0000      -0.474733       -12.9181 
  75   1.0000      -0.471050       -12.8179 
  76   1.0000      -0.462992       -12.5987 
  77   1.0000      -0.462028       -12.5724 
  78   1.0000      -0.458303       -12.4711 
  79   1.0000      -0.451490       -12.2857 
  80   1.0000      -0.450355       -12.2548 
  81   1.0000      -0.447877       -12.1873 
  82   1.0000      -0.444405       -12.0929 
  83   1.0000      -0.441094       -12.0028 
  84   1.0000      -0.440492       -11.9864 
  85   1.0000      -0.439617       -11.9626 
  86   1.0000      -0.437045       -11.8926 
  87   1.0000      -0.429902       -11.6982 
  88   1.0000      -0.425496       -11.5783 
  89   1.0000      -0.420007       -11.4290 
  90   1.0000      -0.415902       -11.3173 
  91   1.0000      -0.408814       -11.1244 
  92   1.0000      -0.401631       -10.9289 
  93   1.0000      -0.394679       -10.7398 
  94   1.0000      -0.386477       -10.5166 
  95   1.0000      -0.367597       -10.0028 
  96   1.0000      -0.348606        -9.4860 
  97   1.0000      -0.329833        -8.9752 
  98   1.0000      -0.285490        -7.7686 
  99   1.0000      -0.237185        -6.4541 
 100   1.0000      -0.102016        -2.7760 
 101   0.0000      -0.002635        -0.0717 
 102   0.0000       0.011742         0.3195 
 103   0.0000       0.044396         1.2081 
 104   0.0000       0.056441         1.5358 
 105   0.0000       0.074355         2.0233 
 106   0.0000       0.088629         2.4117 
 107   0.0000       0.099531         2.7084 
 108   0.0000       0.107875         2.9354 
 109   0.0000       0.125741         3.4216 
 110   0.0000       0.132457         3.6043 
 111   0.0000       0.144226         3.9246 

                 SPIN DOWN ORBITALS
  NO   OCC          E(Eh)            E(eV) 
   0   1.0000     -24.743910      -673.3160 
   1   1.0000     -24.742982      -673.2908 
   2   1.0000     -24.742053      -673.2655 
   3   1.0000     -24.741906      -673.2615 
   4   1.0000     -24.740534      -673.2242 
   5   1.0000     -24.740118      -673.2128 
   6   1.0000     -24.739629      -673.1995 
   7   1.0000     -24.735381      -673.0839 
   8   1.0000     -24.734438      -673.0583 
   9   1.0000     -24.726873      -672.8524 
  10   1.0000     -24.724980      -672.8009 
  11   1.0000     -24.712279      -672.4553 
  12   1.0000     -24.709633      -672.3833 
  13   1.0000     -24.685802      -671.7348 
  14   1.0000     -24.683089      -671.6610 
  15   1.0000     -19.111907      -520.0614 
  16   1.0000     -19.044494      -518.2270 
  17   1.0000     -10.459936      -284.6293 
  18   1.0000     -10.404977      -283.1338 
  19   1.0000     -10.404082      -283.1095 
  20   1.0000     -10.397910      -282.9415 
  21   1.0000     -10.386176      -282.6222 
  22   1.0000     -10.364970      -282.0452 
  23   1.0000     -10.335708      -281.2489 
  24   1.0000     -10.217242      -278.0253 
  25   1.0000      -1.352414       -36.8010 
  26   1.0000      -1.325101       -36.0578 
  27   1.0000      -1.309433       -35.6315 
  28   1.0000      -1.303441       -35.4684 
  29   1.0000      -1.294561       -35.2268 
  30   1.0000      -1.277713       -34.7683 
  31   1.0000      -1.265219       -34.4284 
  32   1.0000      -1.259198       -34.2645 
  33   1.0000      -1.256710       -34.1968 
  34   1.0000      -1.249668       -34.0052 
  35   1.0000      -1.245810       -33.9002 
  36   1.0000      -1.242510       -33.8104 
  37   1.0000      -1.236693       -33.6521 
  38   1.0000      -1.220587       -33.2139 
  39   1.0000      -1.190037       -32.3826 
  40   1.0000      -1.021596       -27.7990 
  41   1.0000      -0.931021       -25.3344 
  42   1.0000      -0.841793       -22.9064 
  43   1.0000      -0.816051       -22.2059 
  44   1.0000      -0.785148       -21.3650 
  45   1.0000      -0.751453       -20.4481 
  46   1.0000      -0.714995       -19.4560 
  47   1.0000      -0.688071       -18.7234 
  48   1.0000      -0.666637       -18.1401 
  49   1.0000      -0.647332       -17.6148 
  50   1.0000      -0.642666       -17.4878 
  51   1.0000      -0.636407       -17.3175 
  52   1.0000      -0.624088       -16.9823 
  53   1.0000      -0.619756       -16.8644 
  54   1.0000      -0.618137       -16.8204 
  55   1.0000      -0.606622       -16.5070 
  56   1.0000      -0.604591       -16.4518 
  57   1.0000      -0.595260       -16.1978 
  58   1.0000      -0.590071       -16.0567 
  59   1.0000      -0.580636       -15.7999 
  60   1.0000      -0.579125       -15.7588 
  61   1.0000      -0.567522       -15.4431 
  62   1.0000      -0.562223       -15.2989 
  63   1.0000      -0.538586       -14.6557 
  64   1.0000      -0.514718       -14.0062 
  65   1.0000      -0.509892       -13.8749 
  66   1.0000      -0.505117       -13.7449 
  67   1.0000      -0.500025       -13.6064 
  68   1.0000      -0.498202       -13.5568 
  69   1.0000      -0.496063       -13.4986 
  70   1.0000      -0.489951       -13.3323 
  71   1.0000      -0.485752       -13.2180 
  72   1.0000      -0.483406       -13.1541 
  73   1.0000      -0.477405       -12.9908 
  74   1.0000      -0.474512       -12.9121 
  75   1.0000      -0.470794       -12.8109 
  76   1.0000      -0.462782       -12.5929 
  77   1.0000      -0.461912       -12.5693 
  78   1.0000      -0.457369       -12.4456 
  79   1.0000      -0.451466       -12.2850 
  80   1.0000      -0.450233       -12.2515 
  81   1.0000      -0.447347       -12.1729 
  82   1.0000      -0.444269       -12.0892 
  83   1.0000      -0.441015       -12.0006 
  84   1.0000      -0.440010       -11.9733 
  85   1.0000      -0.436809       -11.8862 
  86   1.0000      -0.433677       -11.8009 
  87   1.0000      -0.429322       -11.6824 
  88   1.0000      -0.424945       -11.5633 
  89   1.0000      -0.418696       -11.3933 
  90   1.0000      -0.414751       -11.2859 
  91   1.0000      -0.404810       -11.0154 
  92   1.0000      -0.399774       -10.8784 
  93   1.0000      -0.393062       -10.6958 
  94   1.0000      -0.370891       -10.0925 
  95   1.0000      -0.362375        -9.8607 
  96   1.0000      -0.338056        -9.1990 
  97   1.0000      -0.324028        -8.8173 
  98   1.0000      -0.255087        -6.9413 
  99   1.0000      -0.230950        -6.2845 
 100   0.0000      -0.015744        -0.4284 
 101   0.0000       0.009231         0.2512 
 102   0.0000       0.018639         0.5072 
 103   0.0000       0.047822         1.3013 
 104   0.0000       0.059806         1.6274 
 105   0.0000       0.077869         2.1189 
 106   0.0000       0.092253         2.5103 
 107   0.0000       0.100353         2.7307 
 108   0.0000       0.111734         3.0404 
 109   0.0000       0.126419         3.4400 
 110   0.0000       0.134547         3.6612 
*Only the first 10 virtual orbitals were printed.

                    ********************************
                    * MULLIKEN POPULATION ANALYSIS *
                    ********************************

--------------------------------------------
MULLIKEN ATOMIC CHARGES AND SPIN POPULATIONS
--------------------------------------------
   0 C :   -0.048498    0.544415
   1 O :   -0.539351    0.245536
   2 O :   -0.484906    0.033138
   3 H :    0.305233    0.015882
   4 C :    0.458035    0.011184
   5 C :    0.272611    0.096299
   6 C :    0.327520    0.020911
   7 C :    0.328204    0.013585
   8 C :    0.312243    0.004787
   9 C :    0.323448    0.002288
  10 C :    0.475365    0.000903
  11 F :   -0.231076    0.002205
  12 F :   -0.233213    0.003406
  13 F :   -0.204158    0.000990
  14 F :   -0.201421    0.001974
  15 F :   -0.186243    0.000252
  16 F :   -0.183803    0.000562
  17 F :   -0.176145    0.000218
  18 F :   -0.175963    0.000710
  19 F :   -0.171697    0.000248
  20 F :   -0.171223    0.000133
  21 F :   -0.167377    0.000099
  22 F :   -0.164357    0.000055
  23 F :   -0.155888   -0.000000
  24 F :   -0.154023    0.000214
  25 F :   -0.153317    0.000004
Sum of atomic charges         :   -1.0000000
Sum of atomic spin populations:    1.0000000

-----------------------------------------------------
MULLIKEN REDUCED ORBITAL CHARGES AND SPIN POPULATIONS
-----------------------------------------------------
CHARGE
  0 C s       :     3.210465  s :     3.210465
      pz      :     0.849442  p :     2.631255
      px      :     0.927921
      py      :     0.853892
      dz2     :     0.036949  d :     0.186092
      dxz     :     0.040274
      dyz     :     0.054687
      dx2y2   :     0.030845
      dxy     :     0.023337
      f0      :     0.003727  f :     0.020685
      f+1     :     0.003569
      f-1     :     0.004492
      f+2     :     0.002736
      f-2     :     0.002266
      f+3     :     0.002178
      f-3     :     0.001718

  1 O s       :     3.786501  s :     3.786501
      pz      :     1.386138  p :     4.723428
      px      :     1.643929
      py      :     1.693361
      dz2     :     0.010502  d :     0.027767
      dxz     :     0.007625
      dyz     :     0.006988
      dx2y2   :     0.001270
      dxy     :     0.001382
      f0      :     0.000543  f :     0.001656
      f+1     :     0.000388
      f-1     :     0.000363
      f+2     :     0.000154
      f-2     :     0.000177
      f+3     :     0.000015
      f-3     :     0.000015

  2 O s       :     3.764539  s :     3.764539
      pz      :     1.582015  p :     4.690715
      px      :     1.733017
      py      :     1.375683
      dz2     :     0.004741  d :     0.028132
      dxz     :     0.005450
      dyz     :     0.009954
      dx2y2   :     0.004800
      dxy     :     0.003187
      f0      :     0.000031  f :     0.001519
      f+1     :     0.000164
      f-1     :     0.000238
      f+2     :     0.000166
      f-2     :     0.000372
      f+3     :     0.000287
      f-3     :     0.000261

  3 H s       :     0.649576  s :     0.649576
      pz      :     0.015965  p :     0.045191
      px      :     0.016220
      py      :     0.013006

  4 C s       :     2.969172  s :     2.969172
      pz      :     0.661269  p :     2.278977
      px      :     0.936554
      py      :     0.681154
      dz2     :     0.053265  d :     0.268168
      dxz     :     0.047364
      dyz     :     0.061177
      dx2y2   :     0.057594
      dxy     :     0.048766
      f0      :     0.004411  f :     0.025649
      f+1     :     0.004810
      f-1     :     0.005738
      f+2     :     0.002606
      f-2     :     0.001162
      f+3     :     0.004286
      f-3     :     0.002636

  5 C s       :     3.190144  s :     3.190144
      pz      :     0.622730  p :     2.232671
      px      :     0.924454
      py      :     0.685487
      dz2     :     0.055763  d :     0.277435
      dxz     :     0.054819
      dyz     :     0.064965
      dx2y2   :     0.046461
      dxy     :     0.055426
      f0      :     0.003895  f :     0.027139
      f+1     :     0.005083
      f-1     :     0.007539
      f+2     :     0.002180
      f-2     :     0.001760
      f+3     :     0.004177
      f-3     :     0.002505

  6 C s       :     3.145888  s :     3.145888
      pz      :     0.592679  p :     2.218460
      px      :     0.915311
      py      :     0.710470
      dz2     :     0.067315  d :     0.280529
      dxz     :     0.058884
      dyz     :     0.059955
      dx2y2   :     0.039418
      dxy     :     0.054958
      f0      :     0.004252  f :     0.027603
      f+1     :     0.004622
      f-1     :     0.007224
      f+2     :     0.002657
      f-2     :     0.003524
      f+3     :     0.002965
      f-3     :     0.002360

  7 C s       :     3.149257  s :     3.149257
      pz      :     0.577510  p :     2.211020
      px      :     0.915808
      py      :     0.717702
      dz2     :     0.076636  d :     0.283630
      dxz     :     0.059953
      dyz     :     0.053982
      dx2y2   :     0.036068
      dxy     :     0.056991
      f0      :     0.005805  f :     0.027890
      f+1     :     0.003964
      f-1     :     0.005001
      f+2     :     0.003839
      f-2     :     0.005042
      f+3     :     0.002199
      f-3     :     0.002039

  8 C s       :     3.152505  s :     3.152505
      pz      :     0.581173  p :     2.222524
      px      :     0.926305
      py      :     0.715045
      dz2     :     0.076481  d :     0.284727
      dxz     :     0.060519
      dyz     :     0.055574
      dx2y2   :     0.034380
      dxy     :     0.057773
      f0      :     0.005641  f :     0.028001
      f+1     :     0.004039
      f-1     :     0.005347
      f+2     :     0.003702
      f-2     :     0.004944
      f+3     :     0.002273
      f-3     :     0.002054

  9 C s       :     3.130168  s :     3.130168
      pz      :     0.598660  p :     2.239053
      px      :     0.931271
      py      :     0.709123
      dz2     :     0.065640  d :     0.279248
      dxz     :     0.059806
      dyz     :     0.063763
      dx2y2   :     0.033405
      dxy     :     0.056634
      f0      :     0.004171  f :     0.028083
      f+1     :     0.004733
      f-1     :     0.007703
      f+2     :     0.002557
      f-2     :     0.003414
      f+3     :     0.003077
      f-3     :     0.002427

 10 C s       :     3.024737  s :     3.024737
      pz      :     0.638028  p :     2.115466
      px      :     0.811956
      py      :     0.665482
      dz2     :     0.068311  d :     0.344067
      dxz     :     0.068136
      dyz     :     0.080461
      dx2y2   :     0.064296
      dxy     :     0.062862
      f0      :     0.004648  f :     0.040365
      f+1     :     0.007062
      f-1     :     0.010110
      f+2     :     0.003470
      f-2     :     0.004536
      f+3     :     0.006481
      f-3     :     0.004059

 11 F s       :     3.908798  s :     3.908798
      pz      :     1.891011  p :     5.307542
      px      :     1.918191
      py      :     1.498340
      dz2     :     0.001968  d :     0.014125
      dxz     :     0.000247
      dyz     :     0.003185
      dx2y2   :     0.005550
      dxy     :     0.003175
      f0      :     0.000056  f :     0.000611
      f+1     :     0.000009
      f-1     :     0.000112
      f+2     :     0.000104
      f-2     :     0.000016
      f+3     :     0.000126
      f-3     :     0.000187

 12 F s       :     3.907782  s :     3.907782
      pz      :     1.484224  p :     5.310761
      px      :     1.923513
      py      :     1.903024
      dz2     :     0.007648  d :     0.014062
      dxz     :     0.003182
      dyz     :     0.002823
      dx2y2   :     0.000276
      dxy     :     0.000133
      f0      :     0.000318  f :     0.000607
      f+1     :     0.000134
      f-1     :     0.000136
      f+2     :     0.000012
      f-2     :     0.000005
      f+3     :     0.000001
      f-3     :     0.000001

 13 F s       :     3.913344  s :     3.913344
      pz      :     1.853102  p :     5.274553
      px      :     1.916348
      py      :     1.505103
      dz2     :     0.002002  d :     0.015589
      dxz     :     0.000444
      dyz     :     0.004429
      dx2y2   :     0.005354
      dxy     :     0.003360
      f0      :     0.000072  f :     0.000672
      f+1     :     0.000005
      f-1     :     0.000113
      f+2     :     0.000158
      f-2     :     0.000037
      f+3     :     0.000120
      f-3     :     0.000168

 14 F s       :     3.912451  s :     3.912451
      pz      :     1.460950  p :     5.272599
      px      :     1.915497
      py      :     1.896153
      dz2     :     0.008490  d :     0.015688
      dxz     :     0.003691
      dyz     :     0.003128
      dx2y2   :     0.000232
      dxy     :     0.000148
      f0      :     0.000364  f :     0.000682
      f+1     :     0.000159
      f-1     :     0.000144
      f+2     :     0.000007
      f-2     :     0.000006
      f+3     :     0.000001
      f-3     :     0.000001

 15 F s       :     3.914720  s :     3.914720
      pz      :     1.761938  p :     5.254737
      px      :     1.906503
      py      :     1.586296
      dz2     :     0.002206  d :     0.016094
      dxz     :     0.001216
      dyz     :     0.005998
      dx2y2   :     0.003783
      dxy     :     0.002891
      f0      :     0.000078  f :     0.000692
      f+1     :     0.000007
      f-1     :     0.000147
      f+2     :     0.000198
      f-2     :     0.000092
      f+3     :     0.000081
      f-3     :     0.000090

 16 F s       :     3.913379  s :     3.913379
      pz      :     1.485443  p :     5.253579
      px      :     1.911921
      py      :     1.856215
      dz2     :     0.007551  d :     0.016147
      dxz     :     0.003474
      dyz     :     0.004200
      dx2y2   :     0.000434
      dxy     :     0.000488
      f0      :     0.000289  f :     0.000698
      f+1     :     0.000129
      f-1     :     0.000209
      f+2     :     0.000029
      f-2     :     0.000038
      f+3     :     0.000002
      f-3     :     0.000002

 17 F s       :     3.915751  s :     3.915751
      pz      :     1.652442  p :     5.243299
      px      :     1.907792
      py      :     1.683065
      dz2     :     0.003458  d :     0.016390
      dxz     :     0.002066
      dyz     :     0.006631
      dx2y2   :     0.002247
      dxy     :     0.001988
      f0      :     0.000090  f :     0.000705
      f+1     :     0.000029
      f-1     :     0.000237
      f+2     :     0.000170
      f-2     :     0.000106
      f+3     :     0.000037
      f-3     :     0.000036

 18 F s       :     3.915390  s :     3.915390
      pz      :     1.559277  p :     5.243483
      px      :     1.906377
      py      :     1.777829
      dz2     :     0.005378  d :     0.016384
      dxz     :     0.002919
      dyz     :     0.005766
      dx2y2   :     0.001115
      dxy     :     0.001207
      f0      :     0.000157  f :     0.000706
      f+1     :     0.000077
      f-1     :     0.000266
      f+2     :     0.000095
      f-2     :     0.000088
      f+3     :     0.000012
      f-3     :     0.000011

 19 F s       :     3.916361  s :     3.916361
      pz      :     1.668595  p :     5.238116
      px      :     1.907458
      py      :     1.662063
      dz2     :     0.003190  d :     0.016510
      dxz     :     0.001917
      dyz     :     0.006713
      dx2y2   :     0.002531
      dxy     :     0.002160
      f0      :     0.000085  f :     0.000709
      f+1     :     0.000022
      f-1     :     0.000225
      f+2     :     0.000184
      f-2     :     0.000106
      f+3     :     0.000043
      f-3     :     0.000044

 20 F s       :     3.916343  s :     3.916343
      pz      :     1.541026  p :     5.237641
      px      :     1.903290
      py      :     1.793325
      dz2     :     0.005842  d :     0.016529
      dxz     :     0.003117
      dyz     :     0.005542
      dx2y2   :     0.000952
      dxy     :     0.001075
      f0      :     0.000179  f :     0.000710
      f+1     :     0.000090
      f-1     :     0.000262
      f+2     :     0.000080
      f-2     :     0.000082
      f+3     :     0.000009
      f-3     :     0.000008

 21 F s       :     3.915831  s :     3.915831
      pz      :     1.766577  p :     5.234366
      px      :     1.901720
      py      :     1.566069
      dz2     :     0.002208  d :     0.016471
      dxz     :     0.001106
      dyz     :     0.006051
      dx2y2   :     0.004080
      dxy     :     0.003026
      f0      :     0.000080  f :     0.000710
      f+1     :     0.000005
      f-1     :     0.000145
      f+2     :     0.000205
      f-2     :     0.000086
      f+3     :     0.000087
      f-3     :     0.000101

 22 F s       :     3.913733  s :     3.913733
      pz      :     1.467914  p :     5.233278
      px      :     1.904254
      py      :     1.861110
      dz2     :     0.008028  d :     0.016622
      dxz     :     0.003665
      dyz     :     0.004157
      dx2y2   :     0.000341
      dxy     :     0.000433
      f0      :     0.000316  f :     0.000724
      f+1     :     0.000143
      f-1     :     0.000204
      f+2     :     0.000023
      f-2     :     0.000034
      f+3     :     0.000002
      f-3     :     0.000001

 23 F s       :     3.912160  s :     3.912160
      pz      :     1.809992  p :     5.226343
      px      :     1.891932
      py      :     1.524419
      dz2     :     0.002175  d :     0.016628
      dxz     :     0.000725
      dyz     :     0.005477
      dx2y2   :     0.005061
      dxy     :     0.003190
      f0      :     0.000087  f :     0.000756
      f+1     :     0.000004
      f-1     :     0.000135
      f+2     :     0.000201
      f-2     :     0.000063
      f+3     :     0.000114
      f-3     :     0.000154

 24 F s       :     3.911268  s :     3.911268
      pz      :     1.848255  p :     5.225339
      px      :     1.629101
      py      :     1.747983
      dz2     :     0.002213  d :     0.016652
      dxz     :     0.003112
      dyz     :     0.002051
      dx2y2   :     0.003578
      dxy     :     0.005698
      f0      :     0.000081  f :     0.000764
      f+1     :     0.000086
      f-1     :     0.000055
      f+2     :     0.000046
      f-2     :     0.000165
      f+3     :     0.000147
      f-3     :     0.000183

 25 F s       :     3.910859  s :     3.910859
      pz      :     1.450279  p :     5.224899
      px      :     1.890142
      py      :     1.884478
      dz2     :     0.008984  d :     0.016789
      dxz     :     0.003775
      dyz     :     0.003595
      dx2y2   :     0.000201
      dxy     :     0.000234
      f0      :     0.000391  f :     0.000769
      f+1     :     0.000170
      f-1     :     0.000178
      f+2     :     0.000012
      f-2     :     0.000016
      f+3     :     0.000001
      f-3     :     0.000001


SPIN
  0 C s       :     0.182128  s :     0.182128
      pz      :     0.148549  p :     0.353529
      px      :     0.078005
      py      :     0.126975
      dz2     :     0.003407  d :     0.009317
      dxz     :    -0.000881
      dyz     :     0.005089
      dx2y2   :     0.002936
      dxy     :    -0.001234
      f0      :    -0.000149  f :    -0.000559
      f+1     :     0.000187
      f-1     :    -0.000162
      f+2     :    -0.000311
      f-2     :    -0.000212
      f+3     :     0.000213
      f-3     :    -0.000125

  1 O s       :     0.012207  s :     0.012207
      pz      :     0.037170  p :     0.233155
      px      :     0.109694
      py      :     0.086290
      dz2     :    -0.000122  d :     0.000247
      dxz     :     0.000137
      dyz     :     0.000246
      dx2y2   :     0.000043
      dxy     :    -0.000057
      f0      :    -0.000017  f :    -0.000072
      f+1     :    -0.000031
      f-1     :    -0.000010
      f+2     :    -0.000013
      f-2     :    -0.000013
      f+3     :     0.000006
      f-3     :     0.000006

  2 O s       :    -0.004247  s :    -0.004247
      pz      :    -0.000998  p :     0.035181
      px      :     0.030001
      py      :     0.006179
      dz2     :     0.000053  d :     0.002173
      dxz     :    -0.000036
      dyz     :     0.000780
      dx2y2   :     0.001249
      dxy     :     0.000129
      f0      :     0.000005  f :     0.000030
      f+1     :    -0.000005
      f-1     :     0.000039
      f+2     :     0.000000
      f-2     :    -0.000002
      f+3     :    -0.000006
      f-3     :    -0.000000

  3 H s       :     0.015113  s :     0.015113
      pz      :     0.000012  p :     0.000769
      px      :     0.000398
      py      :     0.000359

  4 C s       :    -0.142342  s :    -0.142342
      pz      :     0.066190  p :     0.127838
      px      :    -0.019228
      py      :     0.080876
      dz2     :     0.005311  d :     0.025401
      dxz     :     0.001029
      dyz     :     0.001395
      dx2y2   :     0.015937
      dxy     :     0.001729
      f0      :     0.000033  f :     0.000287
      f+1     :     0.000119
      f-1     :    -0.000007
      f+2     :    -0.000055
      f-2     :     0.000149
      f+3     :     0.000101
      f-3     :    -0.000054

  5 C s       :     0.012520  s :     0.012520
      pz      :     0.023280  p :     0.069583
      px      :     0.002272
      py      :     0.044031
      dz2     :     0.004052  d :     0.014217
      dxz     :     0.000222
      dyz     :     0.000376
      dx2y2   :     0.009282
      dxy     :     0.000284
      f0      :    -0.000014  f :    -0.000021
      f+1     :     0.000004
      f-1     :    -0.000014
      f+2     :    -0.000020
      f-2     :     0.000049
      f+3     :     0.000003
      f-3     :    -0.000029

  6 C s       :    -0.015628  s :    -0.015628
      pz      :     0.009150  p :     0.029641
      px      :    -0.003373
      py      :     0.023865
      dz2     :     0.001858  d :     0.006851
      dxz     :     0.000060
      dyz     :     0.000250
      dx2y2   :     0.004388
      dxy     :     0.000295
      f0      :     0.000009  f :     0.000046
      f+1     :     0.000010
      f-1     :    -0.000015
      f+2     :    -0.000007
      f-2     :     0.000031
      f+3     :     0.000028
      f-3     :    -0.000009

  7 C s       :    -0.001996  s :    -0.001996
      pz      :     0.001487  p :     0.011868
      px      :    -0.000896
      py      :     0.011277
      dz2     :     0.000799  d :     0.003675
      dxz     :     0.000006
      dyz     :     0.000128
      dx2y2   :     0.002720
      dxy     :     0.000023
      f0      :     0.000010  f :     0.000037
      f+1     :     0.000003
      f-1     :    -0.000009
      f+2     :     0.000001
      f-2     :     0.000012
      f+3     :     0.000020
      f-3     :    -0.000000

  8 C s       :    -0.000969  s :    -0.000969
      pz      :     0.000065  p :     0.004269
      px      :    -0.000158
      py      :     0.004362
      dz2     :     0.000247  d :     0.001468
      dxz     :     0.000001
      dyz     :     0.000051
      dx2y2   :     0.001088
      dxy     :     0.000081
      f0      :     0.000002  f :     0.000020
      f+1     :     0.000001
      f-1     :    -0.000001
      f+2     :     0.000007
      f-2     :     0.000001
      f+3     :     0.000014
      f-3     :    -0.000005

  9 C s       :    -0.000118  s :    -0.000118
      pz      :     0.000083  p :     0.001733
      px      :    -0.000017
      py      :     0.001666
      dz2     :     0.000073  d :     0.000662
      dxz     :    -0.000005
      dyz     :    -0.000000
      dx2y2   :     0.000582
      dxy     :     0.000012
      f0      :    -0.000001  f :     0.000012
      f+1     :     0.000001
      f-1     :     0.000001
      f+2     :     0.000005
      f-2     :     0.000000
      f+3     :     0.000008
      f-3     :    -0.000002

 10 C s       :     0.000231  s :     0.000231
      pz      :     0.000062  p :     0.000533
      px      :    -0.000003
      py      :     0.000474
      dz2     :     0.000015  d :     0.000131
      dxz     :    -0.000000
      dyz     :    -0.000002
      dx2y2   :     0.000077
      dxy     :     0.000041
      f0      :    -0.000001  f :     0.000008
      f+1     :     0.000000
      f-1     :     0.000000
      f+2     :     0.000000
      f-2     :     0.000001
      f+3     :     0.000007
      f-3     :    -0.000000

 11 F s       :    -0.002356  s :    -0.002356
      pz      :     0.002869  p :     0.004419
      px      :    -0.001160
      py      :     0.002710
      dz2     :     0.000018  d :     0.000138
      dxz     :     0.000008
      dyz     :     0.000068
      dx2y2   :     0.000087
      dxy     :    -0.000044
      f0      :     0.000001  f :     0.000005
      f+1     :    -0.000000
      f-1     :    -0.000000
      f+2     :     0.000001
      f-2     :     0.000000
      f+3     :    -0.000000
      f-3     :     0.000004

[...]
 16:    152.87   0.001694    8.56  0.003458  (-0.057737 -0.009970 -0.005021)
 17:    190.10   0.002638   13.33  0.004330  ( 0.008711  0.000195 -0.065226)
 18:    194.65   0.002916   14.74  0.004675  (-0.067802  0.003639 -0.008063)
 19:    202.75   0.000114    0.58  0.000175  ( 0.011620  0.002579  0.005788)
 20:    210.74   0.000483    2.44  0.000715  ( 0.004711 -0.024366  0.009935)
 21:    230.46   0.000030    0.15  0.000040  ( 0.005096  0.001937 -0.003212)
 22:    243.99   0.000332    1.68  0.000425  ( 0.018650 -0.000168  0.008775)
 23:    246.54   0.002914   14.73  0.003689  ( 0.052050 -0.017777  0.025754)
 24:    255.69   0.031116  157.25  0.037976  (-0.185982  0.038919 -0.043269)
 25:    260.33   0.000854    4.31  0.001023  ( 0.031125 -0.007303  0.001028)
 26:    264.02   0.005755   29.08  0.006802  (-0.079333  0.017119 -0.014684)
 27:    285.50   0.001187    6.00  0.001297  ( 0.033340 -0.013325 -0.002894)
 28:    305.33   0.000203    1.03  0.000207  (-0.009122 -0.001137 -0.011082)
 29:    311.82   0.000072    0.37  0.000072  ( 0.001838  0.008308 -0.000161)
 30:    332.92   0.000033    0.17  0.000031  (-0.001482  0.002260  0.004874)
 31:    345.00   0.006768   34.20  0.006122  ( 0.068911  0.036424 -0.006826)
 32:    352.28   0.004475   22.62  0.003964  ( 0.056823  0.024105 -0.012426)
 33:    358.44   0.000517    2.61  0.000450  (-0.007729 -0.006352 -0.018699)
 34:    362.27   0.000960    4.85  0.000827  (-0.027558 -0.006440  0.005142)
 35:    368.81   0.001435    7.25  0.001214  (-0.027763 -0.021049 -0.000236)
 36:    374.18   0.000447    2.26  0.000373  (-0.009729 -0.016492 -0.002423)
 37:    412.09   0.000208    1.05  0.000158  ( 0.008528 -0.009071 -0.001652)
 38:    451.56   0.011580   58.52  0.008003  ( 0.080725  0.037675 -0.008163)
 39:    465.05   0.000715    3.62  0.000480  (-0.014467 -0.002896  0.016197)
 40:    512.03   0.001480    7.48  0.000902  ( 0.021729  0.020356 -0.003953)
 41:    523.58   0.004737   23.94  0.002823  ( 0.051013  0.013626 -0.005936)
 42:    524.80   0.006233   31.50  0.003706  (-0.039035  0.046430  0.005183)
 43:    551.64   0.001879    9.49  0.001063  (-0.027035 -0.017341  0.005581)
 44:    558.73   0.004617   23.33  0.002579  ( 0.048182 -0.014342  0.007169)
 45:    567.24   0.023961  121.09  0.013182  (-0.109709 -0.032937 -0.007802)
 46:    589.00   0.001827    9.23  0.000968  (-0.025375 -0.007787 -0.016228)
 47:    602.42   0.001096    5.54  0.000568  ( 0.021031 -0.011081 -0.001573)
 48:    620.44   0.009385   47.43  0.004720  ( 0.067155  0.012124 -0.007979)
 49:    640.97   0.032172  162.59  0.015664  (-0.124225 -0.015159  0.001438)
 50:    676.31   0.017931   90.62  0.008274  ( 0.089683 -0.010678  0.010809)
 51:    689.16   0.021015  106.20  0.009516  (-0.097336  0.001604  0.006263)
 52:    715.80   0.000926    4.68  0.000404  ( 0.018914 -0.006698  0.001116)
 53:    745.56   0.002598   13.13  0.001087  (-0.032952 -0.000250  0.001240)
 54:    812.77   0.032754  165.53  0.012576  ( 0.104149  0.037102  0.018773)
 55:    915.11   0.067278  340.00  0.022943  ( 0.146283  0.032612  0.021926)
 56:    983.31   0.084234  425.69  0.026733  ( 0.038461  0.157308  0.022529)
 57:   1010.80   0.035171  177.74  0.010858  ( 0.004241 -0.017455 -0.102643)
 58:   1036.79   0.008551   43.21  0.002574  (-0.026718 -0.039827  0.016547)
 59:   1096.10   0.041144  207.92  0.011714  (-0.019174 -0.051281 -0.093361)
 60:   1102.73   0.014100   71.26  0.003990  (-0.023941  0.033866 -0.047646)
 61:   1105.63   0.013350   67.47  0.003768  ( 0.049123 -0.036045  0.007474)
 62:   1116.63   0.011935   60.32  0.003336  (-0.024264 -0.008475  0.051720)
 63:   1124.06   0.073446  371.17  0.020390  ( 0.016456  0.138682 -0.029779)
 64:   1134.41   0.121129  612.14  0.033321  (-0.031635 -0.128951 -0.125269)
 65:   1139.09   0.031474  159.06  0.008623  ( 0.004273 -0.091876  0.012771)
 66:   1146.98   0.090257  456.12  0.024557  ( 0.001448  0.028225 -0.154136)
 67:   1158.57   0.053372  269.72  0.014376  ( 0.049071 -0.100097  0.044140)
 68:   1162.22   0.085770  433.45  0.023030  ( 0.019760 -0.017516 -0.149441)
 69:   1174.23   0.013459   68.02  0.003577  (-0.011902 -0.036056  0.046208)
 70:   1184.46   0.053692  271.34  0.014146  ( 0.015085  0.034291 -0.112883)
 71:   1212.67   0.027931  141.15  0.007188  (-0.047293  0.052234  0.047146)
 72:   1238.17   0.000207    1.05  0.000052  ( 0.004820 -0.005327 -0.000817)
 73:   1258.67   0.020031  101.23  0.004966  ( 0.037633 -0.013354 -0.058066)
 74:   1273.90   0.009188   46.43  0.002251  ( 0.029179  0.005270 -0.037036)
 75:   1330.32   0.089370  451.64  0.020964  ( 0.143840 -0.004221 -0.016015)
 76:   1542.01   0.116074  586.59  0.023490  (-0.112545  0.049691  0.091405)
 77:   3700.00   0.015305   77.34  0.001291  (-0.024525 -0.018402  0.018728)

* The epsilon (eps) is given for a Dirac delta lineshape.
** The dipole moment derivative (T) already includes vibrational overlap.

The first frequency considered to be a vibration is 6
The total number of vibrations considered is 72


--------------------------
THERMOCHEMISTRY AT 298.15K
--------------------------

Temperature         ...   298.15 K
Pressure            ...     1.00 atm
Total Mass          ...   414.06 AMU
Quasi RRHO          ...     True
Cut-Off Frequency   ...     1.00 cm^-1

Throughout the following assumptions are being made:
  (1) The electronic state is orbitally nondegenerate
      but the spin degeneracy is treated
  (2) There are no thermally accessible electronically excited states
  (3) Hindered rotations indicated by low frequency modes are not
      treated as such but are treated as vibrations and this may
      cause some error
  (4) All equations used are the standard statistical mechanics
      equations for an ideal gas
  (5) All vibrations are strictly harmonic

freq.      25.01  E(vib)   ...       0.56 
freq.      29.98  E(vib)   ...       0.55 
freq.      36.43  E(vib)   ...       0.54 
freq.      41.94  E(vib)   ...       0.53 
freq.      55.50  E(vib)   ...       0.52 
freq.      61.93  E(vib)   ...       0.51 
freq.      67.69  E(vib)   ...       0.50 
freq.      81.86  E(vib)   ...       0.48 
freq.     108.82  E(vib)   ...       0.45 
freq.     127.81  E(vib)   ...       0.43 
freq.     152.87  E(vib)   ...       0.40 
freq.     190.10  E(vib)   ...       0.36 
freq.     194.65  E(vib)   ...       0.36 
freq.     202.75  E(vib)   ...       0.35 
freq.     210.74  E(vib)   ...       0.34 
freq.     230.46  E(vib)   ...       0.32 
freq.     243.99  E(vib)   ...       0.31 
freq.     246.54  E(vib)   ...       0.31 
freq.     255.69  E(vib)   ...       0.30 
freq.     260.33  E(vib)   ...       0.30 
freq.     264.02  E(vib)   ...       0.29 
freq.     285.50  E(vib)   ...       0.28 
freq.     305.33  E(vib)   ...       0.26 
freq.     311.82  E(vib)   ...       0.25 
freq.     332.92  E(vib)   ...       0.24 
freq.     345.00  E(vib)   ...       0.23 
freq.     352.28  E(vib)   ...       0.23 
freq.     358.44  E(vib)   ...       0.22 
freq.     362.27  E(vib)   ...       0.22 
freq.     368.81  E(vib)   ...       0.21 
freq.     374.18  E(vib)   ...       0.21 
freq.     412.09  E(vib)   ...       0.19 
freq.     451.56  E(vib)   ...       0.16 
freq.     465.05  E(vib)   ...       0.16 
freq.     512.03  E(vib)   ...       0.14 
freq.     523.58  E(vib)   ...       0.13 
freq.     524.80  E(vib)   ...       0.13 
freq.     551.64  E(vib)   ...       0.12 
freq.     558.73  E(vib)   ...       0.12 
freq.     567.24  E(vib)   ...       0.11 
freq.     589.00  E(vib)   ...       0.10 
freq.     602.42  E(vib)   ...       0.10 
freq.     620.44  E(vib)   ...       0.09 
freq.     640.97  E(vib)   ...       0.09 
freq.     676.31  E(vib)   ...       0.08 
freq.     689.16  E(vib)   ...       0.07 
freq.     715.80  E(vib)   ...       0.07 
freq.     745.56  E(vib)   ...       0.06 
freq.     812.77  E(vib)   ...       0.05 
freq.     915.11  E(vib)   ...       0.03 
freq.     983.31  E(vib)   ...       0.02 
freq.    1010.80  E(vib)   ...       0.02 
freq.    1036.79  E(vib)   ...       0.02 
freq.    1096.10  E(vib)   ...       0.02 
freq.    1102.73  E(vib)   ...       0.02 
freq.    1105.63  E(vib)   ...       0.02 
freq.    1116.63  E(vib)   ...       0.01 
freq.    1124.06  E(vib)   ...       0.01 
freq.    1134.41  E(vib)   ...       0.01 
freq.    1139.09  E(vib)   ...       0.01 
freq.    1146.98  E(vib)   ...       0.01 
freq.    1158.57  E(vib)   ...       0.01 
freq.    1162.22  E(vib)   ...       0.01 
freq.    1174.23  E(vib)   ...       0.01 
freq.    1184.46  E(vib)   ...       0.01 
freq.    1212.67  E(vib)   ...       0.01 
freq.    1238.17  E(vib)   ...       0.01 
freq.    1258.67  E(vib)   ...       0.01 
freq.    1273.90  E(vib)   ...       0.01 
freq.    1330.32  E(vib)   ...       0.01 
freq.    1542.01  E(vib)   ...       0.00 
freq.    3700.00  E(vib)   ...       0.00 

------------
INNER ENERGY
------------

The inner energy is: U= E(el) + E(ZPE) + E(vib) + E(rot) + E(trans)
    E(el)   - is the total energy from the electronic structure calculation
              = E(kin-el) + E(nuc-el) + E(el-el) + E(nuc-nuc)
    E(ZPE)  - the the zero temperature vibrational energy from the frequency calculation
    E(vib)  - the the finite temperature correction to E(ZPE) due to population
              of excited vibrational states
    E(rot)  - is the rotational thermal energy
    E(trans)- is the translational thermal energy

Summary of contributions to the inner energy U:
Electronic energy                ...  -1953.71928597 Eh
Zero point energy                ...      0.10546018 Eh      66.18 kcal/mol
Thermal vibrational correction   ...      0.02123682 Eh      13.33 kcal/mol
Thermal rotational correction    ...      0.00141627 Eh       0.89 kcal/mol
Thermal translational correction ...      0.00141627 Eh       0.89 kcal/mol
-----------------------------------------------------------------------
Total thermal energy                  -1953.58975643 Eh


Summary of corrections to the electronic energy:
(perhaps to be used in another calculation)
Total thermal correction                  0.02406937 Eh      15.10 kcal/mol
Non-thermal (ZPE) correction              0.10546018 Eh      66.18 kcal/mol
-----------------------------------------------------------------------
Total correction                          0.12952954 Eh      81.28 kcal/mol


--------
ENTHALPY
--------

The enthalpy is H = U + kB*T
                kB is Boltzmann's constant
Total thermal energy              ...  -1953.58975643 Eh 
Thermal Enthalpy correction       ...      0.00094421 Eh       0.59 kcal/mol
-----------------------------------------------------------------------
Total Enthalpy                    ...  -1953.58881222 Eh


Note: Only C1 symmetry has been detected, increase convergence thresholds 
      if your molecule has a higher symmetry. Symmetry factor of 1.0 is   
      used for the rotational entropy correction. 
 

Note: Rotational entropy computed according to Herzberg 
Infrared and Raman Spectra, Chapter V,1, Van Nostrand Reinhold, 1945 
Point Group:  C1, Symmetry Number:   1  
Rotational constants in cm-1:     0.021052     0.003654     0.003611 

Vibrational entropy computed according to the QRRHO of S. Grimme
Chem.Eur.J. 2012 18 9955 using a reference frequency of 100.0 cm-1


-------
ENTROPY
-------

The entropy contributions are T*S = T*(S(el)+S(vib)+S(rot)+S(trans))
     S(el)   - electronic entropy
     S(vib)  - vibrational entropy
     S(rot)  - rotational entropy
     S(trans)- translational entropy
The entropies will be listed as multiplied by the temperature to get
units of energy

Electronic entropy                ...      0.00065446 Eh      0.41 kcal/mol
Vibrational entropy               ...      0.03785810 Eh     23.76 kcal/mol
Rotational entropy                ...      0.01663766 Eh     10.44 kcal/mol
Translational entropy             ...      0.02088355 Eh     13.10 kcal/mol
-----------------------------------------------------------------------
Final entropy term                ...      0.07603377 Eh     47.71 kcal/mol

In case the symmetry of your molecule has not been determined correctly
or in case you have a reason to use a different symmetry number we print 
out the resulting rotational entropy values for sn=1,12:

 non-linear molecules -----------------------------------
|  sn= 1 | S(rot)=       0.01663766 Eh     10.44 kcal/mol|
|  sn= 2 | S(rot)=       0.01598321 Eh     10.03 kcal/mol|
|  sn= 3 | S(rot)=       0.01560037 Eh      9.79 kcal/mol|
|  sn= 4 | S(rot)=       0.01532875 Eh      9.62 kcal/mol|
|  sn= 5 | S(rot)=       0.01511806 Eh      9.49 kcal/mol|
|  sn= 6 | S(rot)=       0.01494592 Eh      9.38 kcal/mol|
|  sn= 7 | S(rot)=       0.01480037 Eh      9.29 kcal/mol|
|  sn= 8 | S(rot)=       0.01467429 Eh      9.21 kcal/mol|
|  sn= 9 | S(rot)=       0.01456308 Eh      9.14 kcal/mol|
|  sn=10 | S(rot)=       0.01446360 Eh      9.08 kcal/mol|
|  sn=11 | S(rot)=       0.01437361 Eh      9.02 kcal/mol|
|  sn=12 | S(rot)=       0.01429146 Eh      8.97 kcal/mol|
 linear molecules ---------------------------------------
|  Dinfh | S(rot)=       0.01063559 Eh      6.67 kcal/mol|
|  Cinfv | S(rot)=       0.01129005 Eh      7.08 kcal/mol|
 --------------------------------------------------------


-------------------
GIBBS FREE ENERGY
-------------------

The Gibbs free energy is G = H - T*S

Total enthalpy                    ...  -1953.58881222 Eh 
Total entropy correction          ...     -0.07603377 Eh    -47.71 kcal/mol
-----------------------------------------------------------------------
Final Gibbs free energy         ...  -1953.66484599 Eh

For completeness - the Gibbs free energy minus the electronic energy
G-E(el)                           ...      0.05443998 Eh     34.16 kcal/mol


Maximum memory used throughout the entire PROP-calculation: 588.7 MB

--------------------------------
SUGGESTED CITATIONS FOR THIS RUN
--------------------------------

Below you find a list of papers that are relevant to this ORCA run
We neither can nor want to force you to cite these papers, but we appreciate if you do
You receive ORCA, which is the product of decades of hard work by many enthusiastic individuals, for free
The only thing we kindly ask in return is that you cite our papers,
We deeply appreciate it, if you show your appreciation for ORCA by not just citing the generic ORCA reference.

Please note that relegating all ORCA citations to the supporting information does *not* help us.
SI sections are not indexed - citations you put there will not count into any citation statistics
But we need these citations in order to attract the funding resources that allow us to do what we are doing

Therefore, if you are a happy ORCA user, please consider citing a few of the papers listed below in the main body of your paper

In addition to the list printed below, the program has created the file rf_mecn_freq_B3L_P_B.bibtex that contains the list in bibtex format
You can import this file easily into all common literature databanks and citation aid programs


List of essential papers. We consider these as the minimum necessary citations

  1. Neese,F.
     Software update: the ORCA program system, version 5.0
     WIRES Comput. Molec. Sci., 2022 12(1)e1606
     doi.org/10.1002/wcms.1606

List of papers to cite with high priority. The work reported in these papers was absolutely
necessary for this run to complete.
Our perspective: the developers of density functionals and basis sets usually get cited in chemistry papers
Good! But without the algorithms to do something with them, the functionals or basis sets would not do anything.
Hence, in our opinion, the algorithm design and method developments papers are equally worthy of getting cited

  1. Neese,F.
     An improvement of the resolution of the identity approximation for the formation of the Coulomb matrix
     J. Comp. Chem., 2003 24(14)1740-1747
     doi.org/10.1002/jcc.10318
  2. Neese,F.; Wennmohs,F.; Hansen,A.; Becker,U.
     Efficient, approximate and parallel Hartree-Fock and hybrid DFT calculations. A 'chain-of-spheres' algorithm for the Hartree-Fock exchange
     Chem. Phys., 2009 356(1-3)98-109
     doi.org/10.1016/j.chemphys.2008.10.036
  3. Bykov,D.; Petrenko,T.; Izsak,R.; Kossmann,S.; Becker,U.; Valeev,E.; Neese,F.
     Efficient implementation of the analytic second derivatives of Hartree-Fock and hybrid DFT energies: a detailed analysis of different approximations
     Molec. Phys., 2015 113 1961-1977
     doi.org/10.1080/00268976.2015.1025114
  4. Garcia-Rates,M.; Neese,F.
     Efficient implementation of the analytical second derivatives of hartree-fock and hybrid DFT energies within the framework of the conductor-like polarizable continuum model
     J. Comput. Chem., 2019 40 1816-1828
     doi.org/10.1002/jcc.25833
  5. Garcia-Rates,M.; Neese,F.
     Effect of the Solute Cavity on the Solvation Energy and its Derivatives within the Framework of the Gaussian Charge Scheme
     J. Comput. Chem., 2020 41 922-939
     doi.org/10.1002/jcc.26139
  6. Helmich-Paris,B.; de Souza,B.; Neese,F.; Izsák,R.
     An improved chain of spheres for exchange algorithm
     J. Chem. Phys., 2021 155 104109
     doi.org/doi: 10.1063/5.0058766.
  7. Neese,F.
     The SHARK Integral Generation and Digestion System
     J. Comp. Chem., 2022  1-16
     doi.org/10.1002/jcc.26942
  8. Grimme,S.; Antony,J.; Ehrlich,S.; Krieg,H.
     A consistent and accurate ab initio parametrization of density functional dispersion correction (DFT-D) for the 94 elements H-Pu
     J. Chem. Phys., 2010 132 154104
     doi.org/10.1063/1.3382344
  9. Grimme,S.; Ehrlich,S.; Goerigk,L.
     Effect of the damping function in dispersion corrected density functional theory
     J. Comput. Chem., 2011 32(7)1456-1465
     doi.org/10.1002/jcc.21759

List of suggested additional citations. These are papers that are important in the 'surrounding' of 
of this run, or papers that preceded the highly important papers. If you like your results we are grateful for a citation.

  1. Izsak,R.; Neese,F.
     An overlap fitted chain of spheres exchange method
     J. Chem. Phys., 2011 135 144105
     doi.org/10.1063/1.3646921
  2. Izsak,R.; Hansen,A.; Neese,F.
     The resolution of identity and chain of spheres approximations for the LPNO-CCSD singles Fock term
     Molec. Phys., 2012 110 2413-2417
     doi.org/10.1080/00268976.2012.687466
  3. Neese,F.
     The ORCA program system
     WIRES Comput. Molec. Sci., 2012 2(1)73-78
     doi.org/10.1002/wcms.81
  4. Izsak,R.; Neese,F.; Klopper,W.
     Robust fitting techniques in the chain of spheres approximation to the Fock exchange: The role of the complementary space
     J. Chem. Phys., 2013 139 
     doi.org/10.1063/1.4819264
  5. Neese,F.
     Software update: the ORCA program system, version 4.0
     WIRES Comput. Molec. Sci., 2018 8(1)1-6
     doi.org/10.1002/wcms.1327
  6. Neese,F.; Wennmohs,F.; Becker,U.; Riplinger,C.
     The ORCA quantum chemistry program package
     J. Chem. Phys., 2020 152 Art. No. L224108
     doi.org/10.1063/5.0004608

List of optional additional citations

  1. Neese,F.
     Approximate second-order SCF convergence for spin unrestricted wavefunctions
     Chem. Phys. Lett., 2000 325(1-3)93-98
     doi.org/10.1016/s0009-2614(00)00662-x

Timings for individual modules:

Sum of individual times          ...     1412.240 sec (=  23.537 min)
Startup calculation              ...        3.930 sec (=   0.065 min)   0.3 %
SCF iterations                   ...      114.016 sec (=   1.900 min)   8.1 %
Property integrals               ...      294.593 sec (=   4.910 min)  20.9 %
SCF Response                     ...      685.951 sec (=  11.433 min)  48.6 %
Property calculations            ...      313.751 sec (=   5.229 min)  22.2 %
                             ****ORCA TERMINATED NORMALLY****
TOTAL RUN TIME: 0 days 0 hours 23 minutes 33 seconds 192 msec
