
                                 *****************
                                 * O   R   C   A *
                                 *****************

                                            #,                                       
                                            ###                                      
                                            ####                                     
                                            #####                                    
                                            ######                                   
                                           ########,                                 
                                     ,,################,,,,,                         
                               ,,#################################,,                 
                          ,,##########################################,,             
                       ,#########################################, ''#####,          
                    ,#############################################,,   '####,        
                  ,##################################################,,,,####,       
                ,###########''''           ''''###############################       
              ,#####''   ,,,,##########,,,,          '''####'''          '####       
            ,##' ,,,,###########################,,,                        '##       
           ' ,,###''''                  '''############,,,                           
         ,,##''                                '''############,,,,        ,,,,,,###''
      ,#''                                            '''#######################'''  
     '                                                          ''''####''''         
             ,#######,   #######,   ,#######,      ##                                
            ,#'     '#,  ##    ##  ,#'     '#,    #''#        ,####,   ,####,        
            ##       ##  ##   ,#'  ##            #'  '#       #'       #'  '#        
            ##       ##  #######   ##           ,######,      #####,   #    #        
            '#,     ,#'  ##    ##  '#,     ,#' ,#      #,     #,   #   #,  ,#        
             '#######'   ##     ##  '#######'  #'      '#     '####' # '####'        



                #########################################################
                #                        -***-                          #
                #          Department of theory and spectroscopy        #
                #                                                       #
                #                      Frank Neese                      #
                #                                                       #
                #     Directorship, Architecture, Infrastructure        #
                #                    SHARK, DRIVERS                     #
                #        Core code/Algorithms in most modules           #
                #                                                       #
                #        Max Planck Institute fuer Kohlenforschung      #
                #                Kaiser Wilhelm Platz 1                 #
                #                 D-45470 Muelheim/Ruhr                 #
                #                      Germany                          #
                #                                                       #
                #                  All rights reserved                  #
                #                        -***-                          #
                #########################################################


                         Program Version 6.0.1  -  RELEASE   -


 With contributions from (in alphabetic order):
[Max-Planck-Institut fuer Kohlenforschung]                               
  Daniel Aravena         : Magnetic Suceptibility                        
  Michael Atanasov       : Ab Initio Ligand Field Theory (pilot matlab implementation)
  Alexander A. Auer      : GIAO ZORA, VPT2 properties, NMR spectrum      
  Ute Becker             : All parallelization in ORCA, NUMFREQ, NUMCALC 
  Giovanni Bistoni       : ED, misc. LED, open-shell LED, HFLD           
  Martin Brehm           : Molecular dynamics                            
  Dmytro Bykov           : pre 5.0 version of the SCF Hessian            
  Marcos Casanova-Páez   : Triplet and SCS-CIS(D). UHF-(DLPNO)-IP/EA/STEOM-CCSD. UHF-CVS-IP/STEOM-CCSD   
  Vijay G. Chilkuri      : MRCI spin determinant printing, contributions to CSF-ICE 
  Pauline Colinet        : FMM embedding                                 
  Dipayan Datta          : RHF DLPNO-CCSD density                        
  Achintya Kumar Dutta   : EOM-CC, STEOM-CC                              
  Nicolas Foglia         : Exact transition moments, OPA infrastructure, MCD improvements    
  Dmitry Ganyushin       : Spin-Orbit,Spin-Spin,Magnetic field MRCI      
  Miquel Garcia-Rates    : C-PCM and meta-GGA Hessian, CCSD/C-PCM, Gaussian charge scheme 
  Tiago L. C. Gouveia    : GS-ROHF, GS-ROCIS                             
  Yang Guo               : DLPNO-NEVPT2, F12-NEVPT2, CIM, IAO-localization        
  Andreas Hansen         : Spin unrestricted coupled pair/coupled cluster methods 
  Ingolf Harden          : AUTO-CI MPn and infrastructure                
  Benjamin Helmich-Paris : MC-RPA, TRAH-(SCF,CASSCF), AVAS, COSX integrals, SCF dyn. polar. 
  Lee Huntington         : MR-EOM, pCC                                   
  Robert Izsak           : Overlap fitted RIJCOSX, COSX-SCS-MP3, EOM     
  Riya Kayal             : Wick's Theorem for AUTO-CI, AUTO-CI UHF-CCSDT 
  Emily Kempfer          : AUTO-CI, RHF CISDT and CCSDT                  
  Christian Kollmar      : KDIIS, OOCD, Brueckner-CCSD(T), CCSD density, CASPT2, CASPT2-K, improved NEVPT2 
  Axel Koslowski         : Symmetry handling                             
  Simone Kossmann        : meta-GGA functionals, TD-DFT gradient, OOMP2, (MP2 Hessian; deprecated post 5.0) 
  Lucas Lang             : DCDCAS                                        
  Marvin Lechner         : AUTO-CI (C++ implementation), FIC-MRCC        
  Spencer Leger          : CASSCF response                               
  Dagmar Lenk            : GEPOL surface, SMD, ORCA-2-JSON               
  Dimitrios Liakos       : Extrapolation schemes; Compound Job, initial MDCI parallelization 
  Dimitrios Manganas     : Further ROCIS development; embedding schemes. LFT, Crystal Embedding 
  Dimitrios Pantazis     : SARC Basis sets                               
  Anastasios Papadopoulos: AUTO-CI, single reference methods and gradients 
  Taras Petrenko         : pre 6.0 DFT Hessian and TD-DFT gradient, (ASA, deprecated), ECA, 1-Electron XAS/XES, NRVS 
  Peter Pinski           : DLPNO-MP2, DLPNO-MP2 Gradient                 
  Christoph Reimann      : Effective Core Potentials                     
  Marius Retegan         : Local ZFS, SOC                                
  Christoph Riplinger    : Optimizer, TS searches, QM/MM, DLPNO-CCSD(T), (RO)-DLPNO pert. Triples 
  Michael Roemelt        : Original ROCIS implementation                 
  Masaaki Saitow         : Open-shell DLPNO-CCSD energy and density      
  Barbara Sandhoefer     : DKH picture change effects                    
  Kantharuban Sivalingam : CASSCF convergence/infrastructure, NEVPT2 and variants, FIC-MRCI 
  Bernardo de Souza      : ESD, SOC TD-DFT                               
  Georgi L. Stoychev     : AutoAux, RI-MP2 NMR, DLPNO-MP2 response, X2C  
  Van Anh Tran           : RI-MP2 g-tensors                              
  Willem Van den Heuvel  : Paramagnetic NMR                              
  Zikuan Wang            : NOTCH, Electric field optimization            
  Frank Wennmohs         : Technical directorship and infrastructure     
  Hang Xu                : AUTO-CI-Response properties                   
                                                                         
[FACCTs GmbH]                                                            
  Markus Bursch, Miquel Garcia-Rates, Christoph Riplinger, Bernardo de Souza, Georgi L. Stoychev 
                                                                 
  APM, Basis sets (HGBS, AHGBS, def-TZVP (Ac-Lr), def2-XVPD (La-Lu)), CI-OPT, improved COSX, DLPNO-Multilevel,           
  DOCKER, DRACO, updates on ESD, GOAT, IRC, LR-CPCM, MBIS, meta-GGA TD-DFT gradient, ML-optimized integration grids, 
  MM, NACMEs, nearIR, NEB, NEB-TS, NL-DFT gradient (VV10), 2- and 3-layer-ONIOM, interface openCOSMO-RS, QMMM,   
  Crystal-QMMM, SF, symmetry and pop. for TD-DFT, r2SCAN hybrids, SOLVATOR                                   
                                                                         
[Other institutions]                                                     
  V. Asgeirsson          : NEB                                           
  Christoph Bannwarth    : sTDA-DFT, sTD-DFT, PBEh-3c, B97-3c, D3        
  Sebastian Ehlert       : rSCAN, r2SCAN, r2SCAN-3c, D4, dhf basis sets  
  Marvin Friede          : D4 for Fr, Ra, Ac-Lr                          
  Lars Goerigk           : TD-DFT with DH, B97 family of functionals     
  Stefan Grimme          : VdW corrections, initial TS optimization, DFT functionals, gCP, sTDA/sTD-DF 
  Waldemar Hujo          : DFT-NL                                        
  H. Jonsson             : NEB                                           
  Holger Kruse           : gCP                                           
  Marcel Mueller         : wB97X-3c, vDZP basis set                      
  Hagen Neugebauer       : wr2SCAN                                       
  Tobias Risthaus        : range-separated hybrid DFT                    
  Lukas Wittmann         : regularized MP2, r2SCAN double-hybrids, wr2SCAN        
                                                                         
We gratefully acknowledge several colleagues who have allowed us to      
interface, adapt or use parts of their codes:                            
  Ed Valeev, F. Pavosevic, A. Kumar             : LibInt (2-el integral package), F12 methods 
  Garnet Chan, S. Sharma, J. Yang, R. Olivares  : DMRG                   
  Ulf Ekstrom                                   : XCFun DFT Library      
  Mihaly Kallay                                 : mrcc  (arbitrary order and MRCC methods)
  Frank Weinhold                                : gennbo (NPA and NBO analysis)           
  Simon Mueller                                 : openCOSMO-RS                            
  Christopher J. Cramer and Donald G. Truhlar   : smd solvation model                     
  S Lehtola, MJT Oliveira, MAL Marques          : LibXC Library                           
  Liviu Ungur et al                             : ANISO software                          


 Your calculation uses the libint2 library for the computation of 2-el integrals
 For citations please refer to: http://libint.valeyev.net

 Your ORCA version has been built with support for libXC version: 6.2.2
 For citations please refer to: https://libxc.gitlab.io

 This ORCA versions uses:
   CBLAS   interface :  Fast vector & matrix operations
   LAPACKE interface :  Fast linear algebra routines
   SCALAPACK package :  Parallel linear algebra routines
   Shared memory     :  Shared parallel matrices
   BLAS/LAPACK       :  OpenBLAS 0.3.27  USE64BITINT DYNAMIC_ARCH NO_AFFINITY SkylakeX SINGLE_THREADED
        Core in use  :  SkylakeX
   Copyright (c) 2011-2014, The OpenBLAS Project


NOTE: MaxCore=8000 MB was set to SCF,MP2,MDCI,CIPSI,MRCI and CIS
      => If you want to overwrite this, your respective input block should be placed after the MaxCore statement
Your calculation utilizes the atom-pairwise dispersion correction
with the Becke-Johnson damping scheme (D3BJ)


Your calculation utilizes the SMD solvation module
Please cite in your paper:
A.V. Marenich, C.J. Cramer, D.G. Truhlar J. Phys. Chem. B, 113, (2009), 6378 

Warning: RI is on but no J-basis has been assigned. Assigning Def2/J (nothing to worry about!)
================================================================================

----- Orbital basis set information -----
Your calculation utilizes the basis: def2-TZVP
   F. Weigend and R. Ahlrichs, Phys. Chem. Chem. Phys. 7, 3297 (2005).

----- AuxJ basis set information -----
Your calculation utilizes the auxiliary basis: def2/J
   F. Weigend, Phys. Chem. Chem. Phys. 8, 1057 (2006).

================================================================================
                                        WARNINGS
                       Please study these warnings very carefully!
================================================================================


WARNING: your system is open-shell and RHF/RKS was chosen
  ===> : WILL SWITCH to UHF/UKS


WARNING: Geometry Optimization
  ===> : Switching off AutoStart
         For restart on a previous wavefunction, please use MOREAD

================================================================================
                                       INPUT FILE
================================================================================
NAME = rf_mecn_opt_TP_C8_P_B.inp
|  1> !TPSSh def2-TZVP opt d3 TightSCF SlowConv defgrid2
|  2>  
|  3> %pal
|  4> nprocs 20
|  5> end
|  6>  
|  7> %scf
|  8> MaxIter 1500
|  9> end
| 10>  
| 11> %maxcore 8000
| 12>  
| 13> !CPCM
| 14> %cpcm smd true
| 15> SMDsolvent "ACETONITRILE"
| 16> end
| 17>  
| 18> * xyz 0 2
| 19> 6        4.790427000     -0.033865800     -0.529943200
| 20> 8        5.449345000     -1.206924000     -0.894594600
| 21> 8        4.978223000      1.323071000     -0.737377200
| 22> 6        3.506687600     -0.338741600      0.376153800
| 23> 6        2.222300000      0.400524800     -0.110681600
| 24> 6        0.900506800     -0.386389800      0.175703000
| 25> 6       -0.395261200      0.487294000      0.065549000
| 26> 6       -1.705693600     -0.364773800     -0.068373600
| 27> 6       -3.005136200      0.445344800      0.258164000
| 28> 6       -4.319880200     -0.214526000     -0.270540800
| 29> 9        3.211587400     -1.692050400      0.412735200
| 30> 9        3.741061800      0.055285800      1.689948800
| 31> 9        2.125696800      1.616867800      0.483236600
| 32> 9        2.314152400      0.589704000     -1.455769200
| 33> 9        0.794028800     -1.413561400     -0.700839000
| 34> 9        0.958350600     -0.884509000      1.435093400
| 35> 9       -0.498373400      1.260265600      1.173340200
| 36> 9       -0.299075000      1.289512600     -1.020910800
| 37> 9       -1.641790400     -1.418189000      0.779523800
| 38> 9       -1.792381400     -0.831391600     -1.336863600
| 39> 9       -2.918792200      1.679227200     -0.295171200
| 40> 9       -3.119771000      0.573779800      1.598579800
| 41> 9       -4.383115600     -1.504377600      0.089127600
| 42> 9       -5.365669800      0.430528600      0.260394200
| 43> 1        5.903122371     -2.014774547     -1.145719253
| 44> *
| 45> 
| 46>                          ****END OF INPUT****
================================================================================

                       *****************************
                       * Geometry Optimization Run *
                       *****************************

Geometry optimization settings:
Update method            Update   .... BFGS
Choice of coordinates    CoordSys .... (2022) Redundant Internals
Initial Hessian          InHess   .... Almloef's Model
Max. no of cycles        MaxIter  .... 75

Convergence Tolerances:
Energy Change            TolE     ....  5.0000e-06 Eh
Max. Gradient            TolMAXG  ....  3.0000e-04 Eh/bohr
RMS Gradient             TolRMSG  ....  1.0000e-04 Eh/bohr
Max. Displacement        TolMAXD  ....  4.0000e-03 bohr
RMS Displacement         TolRMSD  ....  2.0000e-03 bohr
Strict Convergence                .... False

------------------------------------------------------------------------------
                        ORCA OPTIMIZATION COORDINATE SETUP
------------------------------------------------------------------------------

The optimization will be done in redundant internal coordinates (2022)
Making redundant internal coordinates   ...  (2022 redundants) done
Evaluating the initial hessian          ...  (Almloef) done
Evaluating the coordinates              ...  done
Calculating the B-matrix                .... done
Calculating the G-matrix                .... done
Diagonalizing the G-matrix              .... done
Small eigenvalue found = 4.878e-03
Small eigenvalue found = 1.411e-02
Small eigenvalue found = 2.899e-02
The first mode is                       ....   40
The number of degrees of freedom        ....   69

    -----------------------------------------------------------------
                    Redundant Internal Coordinates


    -----------------------------------------------------------------
         Definition                    Initial Value    Approx d2E/dq
    -----------------------------------------------------------------
      1. B(O   1,C   0)                  1.3940         0.551454   
      2. B(O   2,C   0)                  1.3855         0.568952   
      3. B(C   3,C   0)                  1.6006         0.288221   
      4. B(C   4,C   3)                  1.5599         0.334759   
      5. B(C   5,C   4)                  1.5647         0.328824   
      6. B(C   6,C   5)                  1.5667         0.326486   
      7. B(C   7,C   6)                  1.5688         0.323927   
      8. B(C   8,C   7)                  1.5657         0.327637   
      9. B(C   9,C   8)                  1.5632         0.330714   
     10. B(F  10,C   3)                  1.3856         0.528443   
     11. B(F  11,C   3)                  1.3915         0.517117   
     12. B(F  12,C   4)                  1.3570         0.586881   
     13. B(F  13,C   4)                  1.3614         0.577499   
     14. B(F  14,C   5)                  1.3545         0.592326   
     15. B(F  15,C   5)                  1.3556         0.590092   
     16. B(F  16,C   6)                  1.3547         0.591865   
     17. B(F  17,C   6)                  1.3540         0.593567   
     18. B(F  18,C   7)                  1.3538         0.593973   
     19. B(F  19,C   7)                  1.3544         0.592672   
     20. B(F  20,C   8)                  1.3550         0.591238   
     21. B(F  21,C   8)                  1.3514         0.599114   
     22. B(F  22,C   9)                  1.3406         0.623533   
     23. B(F  23,C   9)                  1.3385         0.628179   
     24. B(H  24,O   1)                  0.9600         0.519956   
     25. A(O   2,C   0,C   3)          112.3347         0.371210   
     26. A(O   1,C   0,C   3)          111.5249         0.369222   
     27. A(O   1,C   0,O   2)          136.1318         0.413163   
     28. L(C   0,O   1,H  24,C   3, 2) 180.0000         0.362759   
     29. L(C   0,O   1,H  24,C   3, 1) 180.0000         0.362759   
     30. A(C   4,C   3,F  11)          107.4072         0.373095   
     31. A(C   0,C   3,F  11)          110.2099         0.363632   
     32. A(F  10,C   3,F  11)          106.7094         0.399684   
     33. A(C   4,C   3,F  10)          107.2033         0.374492   
     34. A(C   0,C   3,F  10)          111.8265         0.364982   
     35. A(C   0,C   3,C   4)          113.1687         0.341363   
     36. A(C   3,C   4,F  12)          110.2926         0.381351   
     37. A(F  12,C   4,F  13)          108.2194         0.415201   
     38. A(C   3,C   4,C   5)          113.5839         0.349005   
     39. A(C   5,C   4,F  13)          107.9208         0.379109   
     40. A(C   3,C   4,F  13)          108.5818         0.380286   
     41. A(C   5,C   4,F  12)          108.0911         0.380169   
     42. A(F  14,C   5,F  15)          109.0206         0.417483   
     43. A(C   4,C   5,C   6)          113.9128         0.347536   
     44. A(C   6,C   5,F  15)          107.7906         0.380059   
     45. A(C   4,C   5,F  15)          108.5900         0.380529   
     46. A(C   6,C   5,F  14)          108.2026         0.380308   
     47. A(C   4,C   5,F  14)          109.2282         0.380779   
     48. A(C   5,C   6,C   7)          113.2023         0.346660   
     49. A(F  16,C   6,F  17)          108.8752         0.417862   
     50. A(C   7,C   6,F  17)          108.2186         0.379927   
     51. A(C   5,C   6,F  17)          109.1523         0.380446   
     52. A(C   7,C   6,F  16)          108.4284         0.379738   
     53. A(C   5,C   6,F  16)          108.8835         0.380256   
     54. A(C   8,C   7,F  18)          108.1296         0.380723   
     55. A(C   6,C   7,F  18)          109.2524         0.379972   
     56. A(F  18,C   7,F  19)          108.7561         0.418014   
     57. A(C   6,C   7,C   8)          113.2298         0.346865   
     58. A(C   8,C   7,F  19)          108.6915         0.380579   
     59. A(C   6,C   7,F  19)          108.6955         0.379828   
     60. A(F  20,C   8,F  21)          108.8987         0.418476   
     61. A(C   9,C   8,F  21)          107.7127         0.381912   
     62. A(C   7,C   8,F  21)          109.0521         0.381293   
     63. A(C   9,C   8,F  20)          107.4499         0.381036   
     64. A(C   7,C   8,C   9)          114.1471         0.348078   
     65. A(C   7,C   8,F  20)          109.4572         0.380419   
     66. A(F  22,C   9,F  23)          108.6877         0.426061   
     67. A(C   8,C   9,F  23)          108.6349         0.385069   
     68. A(C   8,C   9,F  22)          110.7995         0.384572   
     69. D(F  11,C   3,C   0,O   2)    -70.4768         0.006601   
     70. D(C   4,C   3,C   0,O   1)   -131.0839         0.006601   
     71. D(F  11,C   3,C   0,O   1)    108.6317         0.006601   
     72. D(F  10,C   3,C   0,O   2)    171.0025         0.006601   
     73. D(F  10,C   3,C   0,O   1)     -9.8890         0.006601   
     74. D(C   4,C   3,C   0,O   2)     49.8076         0.006601   
     75. D(F  12,C   4,C   3,C   0)    -89.8453         0.009100   
     76. D(C   5,C   4,C   3,C   0)    148.6429         0.009100   
     77. D(F  12,C   4,C   3,F  10)    146.3851         0.009100   
     78. D(F  12,C   4,C   3,F  11)     32.0233         0.009100   
     79. D(C   5,C   4,C   3,F  10)     24.8733         0.009100   
     80. D(C   5,C   4,C   3,F  11)    -89.4885         0.009100   
     81. D(C   6,C   5,C   4,F  12)     41.2001         0.008811   
     82. D(C   6,C   5,C   4,F  13)    -75.6292         0.008811   
     83. D(C   6,C   5,C   4,C   3)    163.9326         0.008811   
     84. D(F  14,C   5,C   4,F  13)     45.4721         0.008811   
     85. D(F  14,C   5,C   4,F  12)    162.3014         0.008811   
     86. D(F  14,C   5,C   4,C   3)    -74.9661         0.008811   
     87. D(F  16,C   6,C   5,F  15)     44.2190         0.008700   
     88. D(F  16,C   6,C   5,F  14)    161.9826         0.008700   
     89. D(F  16,C   6,C   5,C   4)    -76.3465         0.008700   
     90. D(C   7,C   6,C   5,F  15)    -76.4529         0.008700   
     91. D(C   7,C   6,C   5,F  14)     41.3107         0.008700   
     92. D(C   7,C   6,C   5,C   4)    162.9815         0.008700   
     93. D(F  18,C   7,C   6,F  17)    162.9167         0.008578   
     94. D(F  18,C   7,C   6,F  16)    -79.1358         0.008578   
     95. D(F  18,C   7,C   6,C   5)     41.7939         0.008578   
     96. D(C   8,C   7,C   6,F  17)    -76.5134         0.008578   
     97. D(C   8,C   7,C   6,F  16)     41.4341         0.008578   
     98. D(C   8,C   7,C   6,C   5)    162.3638         0.008578   
     99. D(C   9,C   8,C   7,C   6)    162.4166         0.008755   
    100. D(F  20,C   8,C   7,F  19)    -78.9355         0.008755   
    101. D(F  20,C   8,C   7,F  18)    163.1633         0.008755   
    102. D(F  20,C   8,C   7,C   6)     41.9584         0.008755   
    103. D(C   9,C   8,C   7,F  19)     41.5227         0.008755   
    104. D(C   9,C   8,C   7,F  18)    -76.3785         0.008755   
    105. D(F  23,C   9,C   8,F  20)    -69.0724         0.008360   
    106. D(F  23,C   9,C   8,C   7)    169.3552         0.008360   
    107. D(F  22,C   9,C   8,F  21)    -71.2185         0.008360   
    108. D(F  22,C   9,C   8,F  20)    171.5999         0.008360   
    109. D(F  22,C   9,C   8,C   7)     50.0276         0.008360   
    -----------------------------------------------------------------

Number of atoms                         .... 25
Number of degrees of freedom            .... 109


         *************************************************************
         *                GEOMETRY OPTIMIZATION CYCLE   1            *
         *************************************************************
---------------------------------
CARTESIAN COORDINATES (ANGSTROEM)
---------------------------------
  C      4.790427   -0.033866   -0.529943
  O      5.449345   -1.206924   -0.894595
  O      4.978223    1.323071   -0.737377
  C      3.506688   -0.338742    0.376154
  C      2.222300    0.400525   -0.110682
  C      0.900507   -0.386390    0.175703
  C     -0.395261    0.487294    0.065549
  C     -1.705694   -0.364774   -0.068374
  C     -3.005136    0.445345    0.258164
  C     -4.319880   -0.214526   -0.270541
  F      3.211587   -1.692050    0.412735
  F      3.741062    0.055286    1.689949
  F      2.125697    1.616868    0.483237
  F      2.314152    0.589704   -1.455769
  F      0.794029   -1.413561   -0.700839
  F      0.958351   -0.884509    1.435093
  F     -0.498373    1.260266    1.173340
  F     -0.299075    1.289513   -1.020911
  F     -1.641790   -1.418189    0.779524
  F     -1.792381   -0.831392   -1.336864
  F     -2.918792    1.679227   -0.295171
  F     -3.119771    0.573780    1.598580
  F     -4.383116   -1.504378    0.089128
  F     -5.365670    0.430529    0.260394
  H      5.903122   -2.014775   -1.145719

----------------------------
CARTESIAN COORDINATES (A.U.)
----------------------------
  NO LB      ZA    FRAG     MASS         X           Y           Z
   0 C     6.0000    0    12.011    9.052595   -0.063997   -1.001448
   1 O     8.0000    0    15.999   10.297770   -2.280756   -1.690539
   2 O     8.0000    0    15.999    9.407478    2.500242   -1.393441
   3 C     6.0000    0    12.011    6.626679   -0.640129    0.710828
   4 C     6.0000    0    12.011    4.199538    0.756882   -0.209158
   5 C     6.0000    0    12.011    1.701711   -0.730171    0.332031
   6 C     6.0000    0    12.011   -0.746935    0.920852    0.123870
   7 C     6.0000    0    12.011   -3.223294   -0.689323   -0.129207
   8 C     6.0000    0    12.011   -5.678884    0.841580    0.487859
   9 C     6.0000    0    12.011   -8.163391   -0.405395   -0.511248
  10 F     9.0000    0    18.998    6.069021   -3.197512    0.779956
  11 F     9.0000    0    18.998    7.069582    0.104475    3.193540
  12 F     9.0000    0    18.998    4.016985    3.055437    0.913185
  13 F     9.0000    0    18.998    4.373114    1.114379   -2.751005
  14 F     9.0000    0    18.998    1.500497   -2.671244   -1.324394
  15 F     9.0000    0    18.998    1.811020   -1.671480    2.711934
  16 F     9.0000    0    18.998   -0.941789    2.381557    2.217292
  17 F     9.0000    0    18.998   -0.565170    2.436826   -1.929242
  18 F     9.0000    0    18.998   -3.102534   -2.679989    1.473086
  19 F     9.0000    0    18.998   -3.387110   -1.571102   -2.526306
  20 F     9.0000    0    18.998   -5.515718    3.173280   -0.557793
  21 F     9.0000    0    18.998   -5.895513    1.084287    3.020878
  22 F     9.0000    0    18.998   -8.282888   -2.842862    0.168427
  23 F     9.0000    0    18.998  -10.139646    0.813581    0.492074
  24 H     1.0000    0     1.008   11.155285   -3.807372   -2.165096

--------------------------------
INTERNAL COORDINATES (ANGSTROEM)
--------------------------------
 C      0   0   0     0.000000000000     0.00000000     0.00000000
 O      1   0   0     1.393990356793     0.00000000     0.00000000
 O      1   2   0     1.385486802956   136.13177198     0.00000000
 C      1   2   3     1.600608594862   111.52489317   181.18992567
 C      4   1   2     1.559863783763   113.16872737   228.91614990
 C      5   4   1     1.564732561934   113.58394786   148.64287440
 C      6   5   4     1.566675459667   113.91280616   163.93256239
 C      7   6   5     1.568817348692   113.20226571   162.98152714
 C      8   7   6     1.565717094808   113.22984595   162.36375422
 C      9   8   7     1.563173062643   114.14707705   162.41661495
 F      4   1   2     1.385592665621   111.82651119   350.11101305
 F      4   1   2     1.391490625050   110.20991618   108.63170802
 F      5   4   1     1.357041377479   110.29260564   270.15468021
 F      5   4   1     1.361428031433   108.58179722    28.57841973
 F      6   5   4     1.354527570075   109.22822656   285.03385927
 F      6   5   4     1.355556277776   108.59004089    43.81583148
 F      7   6   5     1.354739297058   108.88346185   283.65347401
 F      7   6   5     1.353957667090   109.15230848    42.38718856
 F      8   7   6     1.353771473879   109.25240264    41.79387651
 F      8   7   6     1.354368423305   108.69554158   283.25540020
 F      9   8   7     1.355028009646   109.45719767    41.95842364
 F      9   8   7     1.351425618925   109.05210362   282.91820052
 F     10   9   8     1.340551089588   110.79953142    50.02756898
 F     10   9   8     1.338530275591   108.63493714   169.35523750
 H      2   1   3     0.960000000033   180.00000000     0.00000000

---------------------------
INTERNAL COORDINATES (A.U.)
---------------------------
 C      0   0   0     0.000000000000     0.00000000     0.00000000
 O      1   0   0     2.634260007667     0.00000000     0.00000000
 O      1   2   0     2.618190619750   136.13177198     0.00000000
 C      1   2   3     3.024711891890   111.52489317   181.18992567
 C      4   1   2     2.947715357535   113.16872737   228.91614990
 C      5   4   1     2.956916014884   113.58394786   148.64287440
 C      6   5   4     2.960587559506   113.91280616   163.93256239
 C      7   6   5     2.964635143173   113.20226571   162.98152714
 C      8   7   6     2.958776512386   113.22984595   162.36375422
 C      9   8   7     2.953968988318   114.14707705   162.41661495
 F      4   1   2     2.618390671194   111.82651119   350.11101305
 F      4   1   2     2.629536199263   110.20991618   108.63170802
 F      5   4   1     2.564436555835   110.29260564   270.15468021
 F      5   4   1     2.572726130452   108.58179722    28.57841973
 F      6   5   4     2.559686148288   109.22822656   285.03385927
 F      6   5   4     2.561630124115   108.59004089    43.81583148
 F      7   6   5     2.560086254300   108.88346185   283.65347401
 F      7   6   5     2.558609187723   109.15230848    42.38718856
 F      8   7   6     2.558257333546   109.25240264    41.79387651
 F      8   7   6     2.559385404477   108.69554158   283.25540020
 F      9   8   7     2.560631842023   109.45719767    41.95842364
 F      9   8   7     2.553824310132   109.05210362   282.91820052
 F     10   9   8     2.533274427850   110.79953142    50.02756898
 F     10   9   8     2.529455642830   108.63493714   169.35523750
 H      2   1   3     1.814137088628   180.00000000     0.00000000

---------------------
BASIS SET INFORMATION
---------------------
There are 4 groups of distinct atoms

 Group   1 Type C   : 11s6p2d1f contracted to 5s3p2d1f pattern {62111/411/11/1}
 Group   2 Type O   : 11s6p2d1f contracted to 5s3p2d1f pattern {62111/411/11/1}
 Group   3 Type F   : 11s6p2d1f contracted to 5s3p2d1f pattern {62111/411/11/1}
 Group   4 Type H   : 5s1p contracted to 3s1p pattern {311/1}

Atom   0C    basis set group =>   1
Atom   1O    basis set group =>   2
Atom   2O    basis set group =>   2
Atom   3C    basis set group =>   1
Atom   4C    basis set group =>   1
Atom   5C    basis set group =>   1
Atom   6C    basis set group =>   1
Atom   7C    basis set group =>   1
Atom   8C    basis set group =>   1
Atom   9C    basis set group =>   1
Atom  10F    basis set group =>   3
Atom  11F    basis set group =>   3
Atom  12F    basis set group =>   3
Atom  13F    basis set group =>   3
Atom  14F    basis set group =>   3
Atom  15F    basis set group =>   3
Atom  16F    basis set group =>   3
Atom  17F    basis set group =>   3
Atom  18F    basis set group =>   3
Atom  19F    basis set group =>   3
Atom  20F    basis set group =>   3
Atom  21F    basis set group =>   3
Atom  22F    basis set group =>   3
Atom  23F    basis set group =>   3
Atom  24H    basis set group =>   4
---------------------------------
AUXILIARY/J BASIS SET INFORMATION
---------------------------------
There are 4 groups of distinct atoms

 Group   1 Type C   : 12s5p4d2f1g contracted to 6s4p3d1f1g pattern {711111/2111/211/2/1}
 Group   2 Type O   : 12s5p4d2f1g contracted to 6s4p3d1f1g pattern {711111/2111/211/2/1}
 Group   3 Type F   : 12s5p4d2f1g contracted to 6s4p3d1f1g pattern {711111/2111/211/2/1}
 Group   4 Type H   : 5s2p1d contracted to 3s1p1d pattern {311/2/1}

Atom   0C    basis set group =>   1
Atom   1O    basis set group =>   2
Atom   2O    basis set group =>   2
Atom   3C    basis set group =>   1
Atom   4C    basis set group =>   1
Atom   5C    basis set group =>   1
Atom   6C    basis set group =>   1
Atom   7C    basis set group =>   1
Atom   8C    basis set group =>   1
Atom   9C    basis set group =>   1
Atom  10F    basis set group =>   3
Atom  11F    basis set group =>   3
Atom  12F    basis set group =>   3
Atom  13F    basis set group =>   3
Atom  14F    basis set group =>   3
Atom  15F    basis set group =>   3
Atom  16F    basis set group =>   3
Atom  17F    basis set group =>   3
Atom  18F    basis set group =>   3
Atom  19F    basis set group =>   3
Atom  20F    basis set group =>   3
Atom  21F    basis set group =>   3
Atom  22F    basis set group =>   3
Atom  23F    basis set group =>   3
Atom  24H    basis set group =>   4


           ************************************************************
           *        Program running with 20 parallel MPI-processes    *
           *              working on a common directory               *
           ************************************************************
------------------------------------------------------------------------------
                             ORCA STARTUP CALCULATIONS
                           -- RI-GTO INTEGRALS CHOSEN --
------------------------------------------------------------------------------
------------------------------------------------------------------------------
                   ___                                                        
                  /   \      - P O W E R E D   B Y -                         
                 /     \                                                     
                 |  |  |   _    _      __       _____    __    __             
                 |  |  |  | |  | |    /  \     |  _  \  |  |  /  |          
                  \  \/   | |  | |   /    \    | | | |  |  | /  /          
                 / \  \   | |__| |  /  /\  \   | |_| |  |  |/  /          
                |  |  |   |  __  | /  /__\  \  |    /   |      \           
                |  |  |   | |  | | |   __   |  |    \   |  |\   \          
                \     /   | |  | | |  |  |  |  | |\  \  |  | \   \       
                 \___/    |_|  |_| |__|  |__|  |_| \__\ |__|  \__/        
                                                                              
                      - O R C A' S   B I G   F R I E N D -                    
                                      &                                       
                       - I N T E G R A L  F E E D E R -                       
                                                                              
 v1 FN, 2020, v2 2021, v3 2022-2024                                           
------------------------------------------------------------------------------


----------------------
SHARK INTEGRAL PACKAGE
----------------------

Number of atoms                             ...     25
Number of basis functions                   ...    750
Number of shells                            ...    268
Maximum angular momentum                    ...      3
Integral batch strategy                     ... SHARK/LIBINT Hybrid
RI-J (if used) integral strategy            ... SPLIT-RIJ (Revised 2003 algorithm where possible)
Printlevel                                  ...      1
Contraction scheme used                     ... SEGMENTED contraction
Prescreening option                         ... SCHWARTZ
   Thresh                                   ... 2.500e-11
   Tcut                                     ... 2.500e-12
   Tpresel                                  ... 2.500e-12 
Coulomb Range Separation                    ... NOT USED
Exchange Range Separation                   ... NOT USED
Multipole approximations                    ... NOT USED
Finite Nucleus Model                        ... NOT USED
CABS basis                                  ... NOT available
Auxiliary Coulomb fitting basis             ... AVAILABLE
   # of basis functions in Aux-J            ...   1187
   # of shells in Aux-J                     ...    365
   Maximum angular momentum in Aux-J        ...      4
Auxiliary J/K fitting basis                 ... NOT available
Auxiliary Correlation fitting basis         ... NOT available
Auxiliary 'external' fitting basis          ... NOT available

Checking pre-screening integrals            ... done (  0.0 sec) Dimension = 268
Check shell pair data                       ... done (  0.0 sec)
Shell pair information
Shell pair cut-off parameter TPreSel        ...   2.5e-12
Total number of shell pairs                 ...     36046
Shell pairs after pre-screening             ...     22481
Total number of primitive shell pairs       ...    118872
Primitive shell pairs kept                  ...     47640
          la=0 lb=0:   4290 shell pairs
          la=1 lb=0:   6140 shell pairs
          la=1 lb=1:   2117 shell pairs
          la=2 lb=0:   3339 shell pairs
          la=2 lb=1:   2436 shell pairs
          la=2 lb=2:    689 shell pairs
          la=3 lb=0:   1514 shell pairs
          la=3 lb=1:   1175 shell pairs
          la=3 lb=2:    629 shell pairs
          la=3 lb=3:    152 shell pairs

Calculating one electron integrals          ... done (  0.0 sec)
Calculating RI/J V-Matrix + Cholesky decomp.... done (  0.1 sec)
Calculating Nuclear repulsion               ... done (  0.0 sec) ENN=   2659.344683347456 Eh

Diagonalization of the overlap matrix:
Smallest eigenvalue                        ... 6.427e-05
Time for diagonalization                   ...    0.106 sec
Threshold for overlap eigenvalues          ... 1.000e-07
Number of eigenvalues below threshold      ... 0
Time for construction of square roots      ...    0.045 sec
Total time needed                          ...    0.157 sec

-------------------
DFT GRID GENERATION
-------------------

General Integration Accuracy     IntAcc      ... 4.388
Radial Grid Type                 RadialGrid  ... OptM3 with GC (2021)
Angular Grid (max. ang.)         AngularGrid ... 4 (Lebedev-302)
Angular grid pruning method      GridPruning ... 4 (adaptive)
Weight generation scheme         WeightScheme... mBecke (2022)
Basis function cutoff            BFCut       ... 1.0000e-11
Integration weight cutoff        WCut        ... 1.0000e-14
Partially contracted basis set               ... off
Rotationally invariant grid construction     ... off
Angular grids for H and He will be reduced by one unit

Total number of grid points                  ...   148703
Total number of batches                      ...     2333
Average number of points per batch           ...       63
Average number of grid points per atom       ...     5948

--------------------
COSX GRID GENERATION
--------------------

GRIDX 1
-------
General Integration Accuracy     IntAcc      ... 3.816
Radial Grid Type                 RadialGrid  ... OptM3 with GC (2021)
Angular Grid (max. ang.)         AngularGrid ... 1 (Lebedev-50)
Angular grid pruning method      GridPruning ... 4 (adaptive)
Weight generation scheme         WeightScheme... mBecke (2022)
Basis function cutoff            BFCut       ... 1.0000e-11
Integration weight cutoff        WCut        ... 1.0000e-14
Partially contracted basis set               ... on
Rotationally invariant grid construction     ... off
Angular grids for H and He will be reduced by one unit

Total number of grid points                  ...    18711
Total number of batches                      ...      158
Average number of points per batch           ...      118
Average number of grid points per atom       ...      748
UseSFitting                                  ... on

GRIDX 2
-------
General Integration Accuracy     IntAcc      ... 4.020
Radial Grid Type                 RadialGrid  ... OptM3 with GC (2021)
Angular Grid (max. ang.)         AngularGrid ... 2 (Lebedev-110)
Angular grid pruning method      GridPruning ... 4 (adaptive)
Weight generation scheme         WeightScheme... mBecke (2022)
Basis function cutoff            BFCut       ... 1.0000e-11
Integration weight cutoff        WCut        ... 1.0000e-14
Partially contracted basis set               ... on
Rotationally invariant grid construction     ... off
Angular grids for H and He will be reduced by one unit

Total number of grid points                  ...    44091
Total number of batches                      ...      360
Average number of points per batch           ...      122
Average number of grid points per atom       ...     1764
UseSFitting                                  ... on

GRIDX 3
-------
General Integration Accuracy     IntAcc      ... 4.338
Radial Grid Type                 RadialGrid  ... OptM3 with GC (2021)
Angular Grid (max. ang.)         AngularGrid ... 3 (Lebedev-194)
Angular grid pruning method      GridPruning ... 4 (adaptive)
Weight generation scheme         WeightScheme... mBecke (2022)
Basis function cutoff            BFCut       ... 1.0000e-11
Integration weight cutoff        WCut        ... 1.0000e-14
Partially contracted basis set               ... on
Rotationally invariant grid construction     ... off
Angular grids for H and He will be reduced by one unit

Total number of grid points                  ...    97583
Total number of batches                      ...      773
Average number of points per batch           ...      126
Average number of grid points per atom       ...     3903
UseSFitting                                  ... on
Initializing property integral containers    ... done (  0.0 sec)

SHARK setup successfully completed in   3.3 seconds

Maximum memory used throughout the entire STARTUP-calculation: 57.5 MB


           ************************************************************
           *        Program running with 20 parallel MPI-processes    *
           *              working on a common directory               *
           ************************************************************
-------------------------------------------------------------------------------
                                 ORCA GUESS
                   Start orbitals & Density for SCF / CASSCF
-------------------------------------------------------------------------------

------------
SCF SETTINGS
------------
Hamiltonian:
 Density Functional     Method          .... DFT(GTOs)
 Exchange Functional    Exchange        .... TPSS
 Correlation Functional Correlation     .... TPSS
 LDA part of GGA corr.  LDAOpt          .... PW91-LDA
 Gradients option       PostSCFGGA      .... off
 Hybrid DFT is turned on
   Fraction HF Exchange ScalHFX         ....  0.100000
   Scaling of DF-GGA-X  ScalDFX         ....  0.900000
   Scaling of DF-GGA-C  ScalDFC         ....  1.000000
   Scaling of DF-LDA-C  ScalLDAC        ....  1.000000
   Perturbative correction              ....  0.000000
   NL short-range parameter             ....  5.200000
 RI-approximation to the Coulomb term is turned on
   Number of AuxJ basis functions       .... 1187
   RIJ-COSX (HFX calculated with COS-X)).... on


General Settings:
 Integral files         IntName         .... rf_mecn_opt_TP_C8_P_B
 Hartree-Fock type      HFTyp           .... UHF
 Total Charge           Charge          ....    0
 Multiplicity           Mult            ....    2
 Number of Electrons    NEL             ....  191
 Basis Dimension        Dim             ....  750
 Nuclear Repulsion      ENuc            ....   2659.3446833475 Eh

Convergence Acceleration:
 AO-DIIS                CNVDIIS         .... on
   Start iteration      DIISMaxIt       ....     0
   Startup error        DIISStart       ....  0.200000
   # of expansion vecs  DIISMaxEq       ....     5
   Bias factor          DIISBfac        ....   1.050
   Max. coefficient     DIISMaxC        ....  10.000
 MO-DIIS                CNVKDIIS        .... off
 Trust-Rad. Augm. Hess. CNVTRAH         .... auto
   Auto Start mean grad. ratio tolernc. ....  1.125000
   Auto Start start iteration           ....    50
   Auto Start num. interpolation iter.  ....    10
   Max. Number of Micro iterations      ....    24
   Max. Number of Macro iterations      .... Maxiter - #DIIS iter
   Number of Davidson start vectors     ....     2
   Converg. threshold    (grad. norm)   ....   1.000e-05
   Grad. Scal. Fac. for Micro threshold ....   0.100
   Minimum threshold for Micro iter.    ....   1.000e-02
   NR start threshold (gradient norm)   ....   1.000e-04
   Initial trust radius                 ....   0.400
   Minimum AH scaling param. (alpha)    ....   1.000
   Maximum AH scaling param. (alpha)    .... 1000.000
   Quad. conv. algorithm                .... NR
   White noise on init. David. guess    .... on
   Maximum white noise                  ....   0.010
   Pseudo random numbers                .... off
   Inactive MOs                         .... canonical
   Orbital update algorithm             .... Taylor
   Preconditioner                       .... Diag
   Full preconditioner red. dimension   ....   250
 SOSCF                  CNVSOSCF        .... on
   Start iteration      SOSCFMaxIt      ....   150
   Startup grad/error   SOSCFStart      ....  0.001000
   Hessian update       SOSCFHessUp     .... L-BFGS
 Level Shifting         CNVShift        .... on
   Level shift para.    LevelShift      ....    0.2500
   Turn off err/grad.   ShiftErr        ....    0.0000
 Zerner damping         CNVZerner       .... off
 Static damping         CNVDamp         .... on
   Fraction old density DampFac         ....    0.8500
   Max. Damping (<1)    DampMax         ....    0.9800
   Min. Damping (>=0)   DampMin         ....    0.0000
   Turn off err/grad.   DampErr         ....    0.0300

SCF Procedure:
 Maximum # iterations   MaxIter         ....  1500
 SCF integral mode      SCFMode         .... Direct
   Integral package                     .... SHARK and LIBINT hybrid scheme
 Reset frequency        DirectResetFreq ....    20
 Integral Threshold     Thresh          ....  2.500e-11 Eh
 Primitive CutOff       TCut            ....  2.500e-12 Eh

Convergence Tolerance:
 Convergence Check Mode ConvCheckMode   .... Total+1el-Energy
 Convergence forced     ConvForced      .... 0
 Energy Change          TolE            ....  1.000e-08 Eh
 1-El. energy change                    ....  1.000e-05 Eh
 Orbital Gradient       TolG            ....  1.000e-05
 Orbital Rotation angle TolX            ....  1.000e-05
 DIIS Error             TolErr          ....  5.000e-07

------------------------------
INITIAL GUESS: MODEL POTENTIAL
------------------------------
Loading Hartree-Fock densities                     ... done
Calculating cut-offs                               ... done
Initializing the effective Hamiltonian             ... done
Setting up the integral package (SHARK)            ... done
Starting the Coulomb interaction                   ... done (   0.1 sec)
Making the grid                                    ... done (   0.4 sec)
Mapping shells                                     ... done
Starting the XC term evaluation                    ... done (   0.1 sec)
  promolecular density results
     # of electrons  =    191.000381577
     EX              =   -197.371650440
     EC              =     -6.683821185
     EX+EC           =   -204.055471625
Transforming the Hamiltonian                       ... done (   0.1 sec)
Diagonalizing the Hamiltonian                      ... done (   0.1 sec)
Back transforming the eigenvectors                 ... done (   0.0 sec)
Now organizing SCF variables                       ... done
                      ------------------
                      INITIAL GUESS DONE (   1.0 sec)
                      ------------------
             **** ENERGY FILE WAS UPDATED (rf_mecn_opt_TP_C8_P_B.en.tmp) ****
Finished Guess after   1.7 sec
Maximum memory used throughout the entire GUESS-calculation: 46.8 MB


           ************************************************************
           *        Program running with 20 parallel MPI-processes    *
           *              working on a common directory               *
           ************************************************************

-------------------------------------------------------------------------------------------
                                      ORCA LEAN-SCF
                              memory conserving SCF solver
-------------------------------------------------------------------------------------------

--------------------
CPCM SOLVATION MODEL
--------------------
CPCM parameters:
  Epsilon                                         ...      35.6880
  Refrac                                          ...       1.3442
  Rsolv                                           ...       1.3000
  Surface type                                    ... GAUSSIAN VDW
  Discretization scheme                           ... Constant charge density
    Threshold for H atoms                         ...       5.0000 (charges/Ang^2)
    Threshold for non-H atoms                     ...       5.0000 (charges/Ang^2)
  Epsilon function type                           ...         CPCM
Solvent:                                          ... ACETONITRILE
SMD-CDS solvent descriptors:
  Soln                                            ...       1.3442
  Soln25                                          ...       1.3416
  Sola                                            ...       0.0700
  Solb                                            ...       0.3200
  Solg                                            ...      41.2500
  Solc                                            ...       0.0000
  Solh                                            ...       0.0000
Radii:
  Scheme                                          ... Element-dependent radii
  Radius for C  used is    3.4960 Bohr (=   1.8500 Ang.)
  Radius for O  used is    4.0969 Bohr (=   2.1680 Ang.)
  Radius for F  used is    3.2692 Bohr (=   1.7300 Ang.)
  Radius for H  used is    2.2677 Bohr (=   1.2000 Ang.)
Calculating surface                               ...        done! (  0.0s)
Cavity surface points                             ...         2132
Cavity Volume                                     ...    2127.2962
Cavity Surface-area                               ...    1104.9996
Calculating surface distance matrix               ...        done! (  0.0s)
Performing Cholesky decomposition & store         ...        done! (  0.1s)
Overall time for CPCM initialization              ...                 0.1s

----------------------------------------D-I-I-S--------------------------------------------
Iteration    Energy (Eh)           Delta-E    RMSDP     MaxDP     DIISErr   Damp  Time(sec)
-------------------------------------------------------------------------------------------
               ***  Starting incremental Fock matrix formation  ***
    1    -1853.8415016358321736     0.00e+00  2.07e-04  1.64e-02  1.43e-01  0.850   6.4
Warning: op=1 Small HOMO/LUMO gap (   0.049) - skipping pre-diagonalization
         Will do a full diagonalization
    2    -1853.9829052311306441    -1.41e-01  1.94e-04  1.49e-02  8.59e-02  0.850   4.6
                               ***Turning on AO-DIIS***
    3    -1854.0503688887529279    -6.75e-02  8.32e-05  1.12e-02  4.88e-02  0.850   3.7
    4    -1854.0897167009943587    -3.93e-02  5.30e-05  9.82e-03  3.41e-02  0.850   3.7
    5    -1854.1175987050282856    -2.79e-02  4.35e-05  8.92e-03  2.66e-02  0.850   3.5
    6    -1854.1398364028609649    -2.22e-02  2.59e-04  5.45e-02  2.43e-02  0.000   3.5
    7    -1854.2600308798919286    -1.20e-01  4.58e-05  6.71e-03  5.22e-03  0.000   4.0
    8    -1854.2603495738103447    -3.19e-04  1.20e-05  2.03e-03  3.65e-03  0.000   3.4
    9    -1854.2604528065157865    -1.03e-04  5.13e-06  7.48e-04  1.01e-03  0.000   3.1
                              *** Initializing SOSCF ***
---------------------------------------S-O-S-C-F--------------------------------------
Iteration    Energy (Eh)           Delta-E    RMSDP     MaxDP     MaxGrad    Time(sec)
--------------------------------------------------------------------------------------
   10    -1854.2604704879568089    -1.77e-05  3.04e-06  7.32e-04  2.81e-04     3.5
               *** Restarting incremental Fock matrix formation ***
   11    -1854.2604841273578131    -1.36e-05  3.23e-06  6.06e-04  2.37e-04     6.1
   12    -1854.2604842784057837    -1.51e-07  2.51e-06  4.30e-04  4.06e-04     3.8
   13    -1854.2604855291774584    -1.25e-06  1.76e-06  1.28e-04  2.28e-04     3.6
   14    -1854.2604853685716080     1.61e-07  9.19e-07  6.20e-05  1.22e-04     3.7
   15    -1854.2604859356779343    -5.67e-07  4.97e-07  6.05e-05  1.98e-05     3.4
   16    -1854.2604859517823570    -1.61e-08  2.28e-07  1.82e-05  2.23e-05     3.1
   17    -1854.2604859819539342    -3.02e-08  1.80e-07  1.68e-05  6.47e-06     2.8
   18    -1854.2604859659413705     1.60e-08  8.98e-08  7.80e-06  5.48e-06     2.8
   19    -1854.2604859785578810    -1.26e-08  8.93e-08  1.05e-05  6.47e-07     2.9
                  *** Gradient check signals convergence ***

               *****************************************************
               *                     SUCCESS                       *
               *           SCF CONVERGED AFTER  19 CYCLES          *
               *****************************************************

Recomputing exchange energy using gridx3       ... done (    7.062 sec)
Old exchange energy                            :    -19.880109758 Eh
New exchange energy                            :    -19.880119706 Eh
Exchange energy change after final integration :     -0.000009948 Eh
Total energy after final integration           :  -1854.260495926 Eh

SMD CDS free energy correction energy :                 4.03038     Kcal/mol
Total Energy after SMD CDS correction =             -1854.254073115 Eh
             **** ENERGY FILE WAS UPDATED (rf_mecn_opt_TP_C8_P_B.en.tmp) ****

----------------
TOTAL SCF ENERGY
----------------

Total Energy       :      -1854.25407311547178 Eh          -50456.81850 eV

Components:
Nuclear Repulsion  :       2659.34468334745634 Eh           72364.44777 eV
Electronic Energy  :      -4513.58884723928713 Eh         -122820.99663 eV
One Electron Energy:      -7870.89596534576867 Eh         -214177.96781 eV
Two Electron Energy:       3357.30711810648108 Eh           91356.97118 eV
CPCM Dielectric    :         -0.01632208672732 Eh              -0.44415 eV
SMD CDS (Gcds)     :          0.00642281100933 Eh               0.17477 eV

Virial components:
Potential Energy   :      -3701.14976363816368 Eh         -100713.40524 eV
Kinetic Energy     :       1846.89569052269189 Eh           50256.58673 eV
Virial Ratio       :          2.00398418959476

DFT components:
N(Alpha)           :       95.999989964934 electrons
N(Beta)            :       94.999972949506 electrons
N(Total)           :      190.999962914440 electrons
E(X)               :     -180.724457450802 Eh       
E(C)               :       -6.698195468334 Eh       
E(XC)              :     -187.422652919136 Eh       

CPCM Solvation Model Properties:
Surface-charge          :         -0.00901959127094
Corrected charge        :          0.00000000000000
Outlying charge corr.   :          0.00000445450251 Eh               0.00012 eV
Free-energy (cav+disp)  :          0.00642281100933 Eh               0.17477 eV

---------------
SCF CONVERGENCE
---------------

  Last Energy change         ...    1.2617e-08  Tolerance :   1.0000e-08
  Last MAX-Density change    ...    1.0470e-05  Tolerance :   1.0000e-07
  Last RMS-Density change    ...    8.9288e-08  Tolerance :   5.0000e-09
  Last DIIS Error            ...    2.8137e-04  Tolerance :   5.0000e-07
  Last Orbital Gradient      ...    6.4672e-07  Tolerance :   1.0000e-05
  Last Orbital Rotation      ...    5.4509e-06  Tolerance :   1.0000e-05


----------------------
UHF SPIN CONTAMINATION
----------------------

Warning: in a DFT calculation there is little theoretical justification to 
         calculate <S**2> as in Hartree-Fock theory. We will do it anyways
         but you should keep in mind that the values have only limited relevance

Expectation value of <S**2>     :     0.752726
Ideal value S*(S+1) for S=0.5   :     0.750000
Deviation                       :     0.002726

----------------
ORBITAL ENERGIES
----------------
                 SPIN UP ORBITALS
  NO   OCC          E(Eh)            E(eV) 
   0   1.0000     -24.662817      -671.1094 
   1   1.0000     -24.662505      -671.1009 
   2   1.0000     -24.661158      -671.0642 
   3   1.0000     -24.661104      -671.0628 
   4   1.0000     -24.660770      -671.0537 
   5   1.0000     -24.660719      -671.0523 
   6   1.0000     -24.660643      -671.0502 
   7   1.0000     -24.659191      -671.0107 
   8   1.0000     -24.657981      -670.9778 
   9   1.0000     -24.657250      -670.9579 
  10   1.0000     -24.655598      -670.9129 
  11   1.0000     -24.655266      -670.9039 
  12   1.0000     -24.649567      -670.7488 
  13   1.0000     -24.649490      -670.7467 
  14   1.0000     -19.130599      -520.5701 
  15   1.0000     -19.098887      -519.7071 
  16   1.0000     -10.347496      -281.5697 
  17   1.0000     -10.346758      -281.5496 
  18   1.0000     -10.346142      -281.5328 
  19   1.0000     -10.345778      -281.5229 
  20   1.0000     -10.345020      -281.5023 
  21   1.0000     -10.342985      -281.4469 
  22   1.0000     -10.340807      -281.3877 
  23   1.0000     -10.323853      -280.9263 
  24   1.0000      -1.303648       -35.4741 
  25   1.0000      -1.293739       -35.2044 
  26   1.0000      -1.284448       -34.9516 
  27   1.0000      -1.276551       -34.7367 
  28   1.0000      -1.274406       -34.6784 
  29   1.0000      -1.271105       -34.5885 
  30   1.0000      -1.257154       -34.2089 
  31   1.0000      -1.236318       -33.6419 
  32   1.0000      -1.229016       -33.4432 
  33   1.0000      -1.225870       -33.3576 
  34   1.0000      -1.223209       -33.2852 
  35   1.0000      -1.220012       -33.1982 
  36   1.0000      -1.219731       -33.1906 
  37   1.0000      -1.204988       -32.7894 
  38   1.0000      -1.066891       -29.0316 
  39   1.0000      -0.980043       -26.6683 
  40   1.0000      -0.828872       -22.5548 
  41   1.0000      -0.811499       -22.0820 
  42   1.0000      -0.785385       -21.3714 
  43   1.0000      -0.751807       -20.4577 
  44   1.0000      -0.718020       -19.5383 
  45   1.0000      -0.684245       -18.6193 
  46   1.0000      -0.655707       -17.8427 
  47   1.0000      -0.651784       -17.7359 
  48   1.0000      -0.619438       -16.8558 
  49   1.0000      -0.617400       -16.8003 
  50   1.0000      -0.606885       -16.5142 
  51   1.0000      -0.599828       -16.3222 
  52   1.0000      -0.596843       -16.2409 
  53   1.0000      -0.592906       -16.1338 
  54   1.0000      -0.581259       -15.8169 
  55   1.0000      -0.577055       -15.7025 
  56   1.0000      -0.573290       -15.6000 
  57   1.0000      -0.566752       -15.4221 
  58   1.0000      -0.565087       -15.3768 
  59   1.0000      -0.557950       -15.1826 
  60   1.0000      -0.555144       -15.1062 
  61   1.0000      -0.546405       -14.8684 
  62   1.0000      -0.526425       -14.3247 
  63   1.0000      -0.488127       -13.2826 
  64   1.0000      -0.484320       -13.1790 
  65   1.0000      -0.480130       -13.0650 
  66   1.0000      -0.476825       -12.9751 
  67   1.0000      -0.473371       -12.8811 
  68   1.0000      -0.469117       -12.7653 
  69   1.0000      -0.463342       -12.6082 
  70   1.0000      -0.459296       -12.4981 
  71   1.0000      -0.455681       -12.3997 
  72   1.0000      -0.455658       -12.3991 
  73   1.0000      -0.450365       -12.2550 
  74   1.0000      -0.446742       -12.1565 
  75   1.0000      -0.442608       -12.0440 
  76   1.0000      -0.439503       -11.9595 
  77   1.0000      -0.434667       -11.8279 
  78   1.0000      -0.428177       -11.6513 
  79   1.0000      -0.425084       -11.5671 
  80   1.0000      -0.424725       -11.5574 
  81   1.0000      -0.422597       -11.4994 
  82   1.0000      -0.420269       -11.4361 
  83   1.0000      -0.418785       -11.3957 
  84   1.0000      -0.416447       -11.3321 
  85   1.0000      -0.415438       -11.3046 
  86   1.0000      -0.412323       -11.2199 
  87   1.0000      -0.409577       -11.1452 
  88   1.0000      -0.407457       -11.0875 
  89   1.0000      -0.396085       -10.7780 
  90   1.0000      -0.370474       -10.0811 
  91   1.0000      -0.344965        -9.3870 
  92   1.0000      -0.329557        -8.9677 
  93   1.0000      -0.326326        -8.8798 
  94   1.0000      -0.298418        -8.1204 
  95   1.0000      -0.269104        -7.3227 
  96   0.0000      -0.111091        -3.0229 
  97   0.0000      -0.036017        -0.9801 
  98   0.0000      -0.017327        -0.4715 
  99   0.0000      -0.008356        -0.2274 
 100   0.0000       0.015380         0.4185 
 101   0.0000       0.025751         0.7007 
 102   0.0000       0.061379         1.6702 
 103   0.0000       0.067986         1.8500 
 104   0.0000       0.090617         2.4658 
 105   0.0000       0.096860         2.6357 
 106   0.0000       0.100095         2.7237 

                 SPIN DOWN ORBITALS
  NO   OCC          E(Eh)            E(eV) 
   0   1.0000     -24.661155      -671.0641 
   1   1.0000     -24.661105      -671.0628 
   2   1.0000     -24.660718      -671.0523 
   3   1.0000     -24.660657      -671.0506 
   4   1.0000     -24.660653      -671.0505 
   5   1.0000     -24.659192      -671.0107 
   6   1.0000     -24.659102      -671.0083 
   7   1.0000     -24.658926      -671.0035 
   8   1.0000     -24.657981      -670.9778 
   9   1.0000     -24.656098      -670.9265 
  10   1.0000     -24.655598      -670.9129 
  11   1.0000     -24.655375      -670.9069 
  12   1.0000     -24.649567      -670.7488 
  13   1.0000     -24.649490      -670.7467 
  14   1.0000     -19.130599      -520.5701 
  15   1.0000     -19.098887      -519.7071 
  16   1.0000     -10.347473      -281.5690 
  17   1.0000     -10.346757      -281.5496 
  18   1.0000     -10.346142      -281.5328 
  19   1.0000     -10.345869      -281.5254 
  20   1.0000     -10.345019      -281.5023 
  21   1.0000     -10.341474      -281.4058 
  22   1.0000     -10.340807      -281.3877 
  23   1.0000     -10.307587      -280.4837 
  24   1.0000      -1.303224       -35.4625 
  25   1.0000      -1.291577       -35.1456 
  26   1.0000      -1.281715       -34.8772 
  27   1.0000      -1.276230       -34.7280 
  28   1.0000      -1.273931       -34.6654 
  29   1.0000      -1.268029       -34.5048 
  30   1.0000      -1.257153       -34.2089 
  31   1.0000      -1.236249       -33.6401 
  32   1.0000      -1.228749       -33.4360 
  33   1.0000      -1.223075       -33.2816 
  34   1.0000      -1.219885       -33.1947 
  35   1.0000      -1.219680       -33.1892 
  36   1.0000      -1.218718       -33.1630 
  37   1.0000      -1.204988       -32.7894 
  38   1.0000      -1.066891       -29.0316 
  39   1.0000      -0.980043       -26.6683 
  40   1.0000      -0.828480       -22.5441 
  41   1.0000      -0.809867       -22.0376 
  42   1.0000      -0.781858       -21.2754 
  43   1.0000      -0.747609       -20.3435 
  44   1.0000      -0.714442       -19.4410 
  45   1.0000      -0.680626       -18.5208 
  46   1.0000      -0.652645       -17.7594 
  47   1.0000      -0.649793       -17.6818 
  48   1.0000      -0.618025       -16.8173 
  49   1.0000      -0.616955       -16.7882 
  50   1.0000      -0.606553       -16.5051 
  51   1.0000      -0.598833       -16.2951 
  52   1.0000      -0.595397       -16.2016 
  53   1.0000      -0.590783       -16.0760 
  54   1.0000      -0.579072       -15.7574 
  55   1.0000      -0.575005       -15.6467 
  56   1.0000      -0.572018       -15.5654 
  57   1.0000      -0.564346       -15.3566 
  58   1.0000      -0.561896       -15.2900 
  59   1.0000      -0.555723       -15.1220 
  60   1.0000      -0.553842       -15.0708 
  61   1.0000      -0.546385       -14.8679 
  62   1.0000      -0.498034       -13.5522 
  63   1.0000      -0.487643       -13.2694 
  64   1.0000      -0.483823       -13.1655 
  65   1.0000      -0.479558       -13.0494 
  66   1.0000      -0.475112       -12.9285 
  67   1.0000      -0.472725       -12.8635 
  68   1.0000      -0.468840       -12.7578 
  69   1.0000      -0.462385       -12.5821 
  70   1.0000      -0.458961       -12.4890 
  71   1.0000      -0.455335       -12.3903 
  72   1.0000      -0.453559       -12.3420 
  73   1.0000      -0.449243       -12.2245 
  74   1.0000      -0.442396       -12.0382 
  75   1.0000      -0.439207       -11.9514 
  76   1.0000      -0.435404       -11.8479 
  77   1.0000      -0.432506       -11.7691 
  78   1.0000      -0.428089       -11.6489 
  79   1.0000      -0.424914       -11.5625 
  80   1.0000      -0.422529       -11.4976 
  81   1.0000      -0.421525       -11.4703 
  82   1.0000      -0.419828       -11.4241 
  83   1.0000      -0.418215       -11.3802 
  84   1.0000      -0.416207       -11.3256 
  85   1.0000      -0.415247       -11.2995 
  86   1.0000      -0.411547       -11.1988 
  87   1.0000      -0.409356       -11.1391 
  88   1.0000      -0.406370       -11.0579 
  89   1.0000      -0.393756       -10.7146 
  90   1.0000      -0.367694       -10.0055 
  91   1.0000      -0.343703        -9.3526 
  92   1.0000      -0.327938        -8.9236 
  93   1.0000      -0.326297        -8.8790 
  94   1.0000      -0.298384        -8.1194 
  95   0.0000      -0.127733        -3.4758 
  96   0.0000      -0.111080        -3.0226 
  97   0.0000      -0.035095        -0.9550 
  98   0.0000      -0.016278        -0.4429 
  99   0.0000      -0.007313        -0.1990 
 100   0.0000       0.017829         0.4851 
 101   0.0000       0.029829         0.8117 
 102   0.0000       0.066712         1.8153 
 103   0.0000       0.073080         1.9886 
 104   0.0000       0.092212         2.5092 
 105   0.0000       0.100012         2.7215 
*Only the first 10 virtual orbitals were printed.

                    ********************************
                    * MULLIKEN POPULATION ANALYSIS *
                    ********************************

--------------------------------------------
MULLIKEN ATOMIC CHARGES AND SPIN POPULATIONS
--------------------------------------------
   0 C :    0.339892    0.000001
   1 O :   -0.428023    0.000002
   2 O :   -0.366959    0.000001
   3 C :    0.345447    0.000017
   4 C :    0.302714    0.000004
   5 C :    0.294710    0.000073
   6 C :    0.288922    0.000459
   7 C :    0.283830   -0.002840
   8 C :    0.339480    0.024806
   9 C :    0.237344    0.823771
  10 F :   -0.163241   -0.000001
  11 F :   -0.164337    0.000000
  12 F :   -0.150878    0.000002
  13 F :   -0.155668    0.000000
  14 F :   -0.148610    0.000011
  15 F :   -0.149509   -0.000008
  16 F :   -0.148546    0.000043
  17 F :   -0.148097    0.000007
  18 F :   -0.150899   -0.000029
  19 F :   -0.150401    0.001361
  20 F :   -0.153897   -0.002156
  21 F :   -0.146030    0.025606
  22 F :   -0.132512    0.065890
  23 F :   -0.128855    0.062978
  24 H :    0.454122    0.000001
Sum of atomic charges         :   -0.0000000
Sum of atomic spin populations:    1.0000000

-----------------------------------------------------
MULLIKEN REDUCED ORBITAL CHARGES AND SPIN POPULATIONS
-----------------------------------------------------
CHARGE
  0 C s       :     3.172997  s :     3.172997
      pz      :     0.790612  p :     2.253176
      px      :     0.801173
      py      :     0.661391
      dz2     :     0.016460  d :     0.215883
      dxz     :     0.015304
      dyz     :     0.059877
      dx2y2   :     0.054644
      dxy     :     0.069598
      f0      :     0.001777  f :     0.018052
      f+1     :     0.001070
      f-1     :     0.002333
      f+2     :     0.002565
      f-2     :     0.001953
      f+3     :     0.003869
      f-3     :     0.004486

  1 O s       :     3.667437  s :     3.667437
      pz      :     1.716126  p :     4.743823
      px      :     1.684786
      py      :     1.342912
      dz2     :     0.001652  d :     0.013921
      dxz     :     0.001190
      dyz     :     0.003042
      dx2y2   :     0.003132
      dxy     :     0.004904
      f0      :     0.000275  f :     0.002842
      f+1     :     0.000129
      f-1     :     0.000381
      f+2     :     0.000245
      f-2     :     0.000431
      f+3     :     0.000941
      f-3     :     0.000440

  2 O s       :     3.884689  s :     3.884689
      pz      :     1.533090  p :     4.457070
      px      :     1.687819
      py      :     1.236161
      dz2     :     0.003114  d :     0.023885
      dxz     :     0.000328
      dyz     :     0.006328
      dx2y2   :     0.008805
      dxy     :     0.005310
      f0      :     0.000118  f :     0.001315
      f+1     :     0.000012
      f-1     :     0.000225
      f+2     :     0.000230
      f-2     :     0.000030
      f+3     :     0.000297
      f-3     :     0.000404

  3 C s       :     3.095022  s :     3.095022
      pz      :     0.687825  p :     2.259731
      px      :     0.919769
      py      :     0.652137
      dz2     :     0.048411  d :     0.274115
      dxz     :     0.055553
      dyz     :     0.067903
      dx2y2   :     0.046793
      dxy     :     0.055455
      f0      :     0.005384  f :     0.025685
      f+1     :     0.003639
      f-1     :     0.003964
      f+2     :     0.003696
      f-2     :     0.002117
      f+3     :     0.003825
      f-3     :     0.003060

  4 C s       :     3.106959  s :     3.106959
      pz      :     0.619677  p :     2.265384
      px      :     0.936755
      py      :     0.708953
      dz2     :     0.063663  d :     0.296979
      dxz     :     0.062362
      dyz     :     0.071176
      dx2y2   :     0.036789
      dxy     :     0.062990
      f0      :     0.003620  f :     0.027963
      f+1     :     0.004990
      f-1     :     0.008112
      f+2     :     0.002408
      f-2     :     0.002715
      f+3     :     0.003610
      f-3     :     0.002508

  5 C s       :     3.139942  s :     3.139942
      pz      :     0.599313  p :     2.232285
      px      :     0.911454
      py      :     0.721518
      dz2     :     0.078753  d :     0.304778
      dxz     :     0.064840
      dyz     :     0.061729
      dx2y2   :     0.035806
      dxy     :     0.063651
      f0      :     0.005043  f :     0.028285
      f+1     :     0.004496
      f-1     :     0.006134
      f+2     :     0.003355
      f-2     :     0.004403
      f+3     :     0.002630
      f-3     :     0.002224

  6 C s       :     3.131180  s :     3.131180
      pz      :     0.591020  p :     2.249365
      px      :     0.924905
      py      :     0.733439
      dz2     :     0.083473  d :     0.302310
      dxz     :     0.064247
      dyz     :     0.056648
      dx2y2   :     0.035369
      dxy     :     0.062573
      f0      :     0.006278  f :     0.028223
      f+1     :     0.004034
      f-1     :     0.004281
      f+2     :     0.004217
      f-2     :     0.005247
      f+3     :     0.002187
      f-3     :     0.001979

  7 C s       :     3.133310  s :     3.133310
      pz      :     0.597350  p :     2.254321
      px      :     0.930336
      py      :     0.726634
      dz2     :     0.076110  d :     0.300345
      dxz     :     0.063951
      dyz     :     0.062566
      dx2y2   :     0.035553
      dxy     :     0.062165
      f0      :     0.004850  f :     0.028194
      f+1     :     0.004457
      f-1     :     0.006454
      f+2     :     0.003215
      f-2     :     0.004324
      f+3     :     0.002727
      f-3     :     0.002168

  8 C s       :     3.089961  s :     3.089961
      pz      :     0.619269  p :     2.245352
      px      :     0.927120
      py      :     0.698963
      dz2     :     0.059724  d :     0.297002
      dxz     :     0.066898
      dyz     :     0.073898
      dx2y2   :     0.036619
      dxy     :     0.059863
      f0      :     0.003616  f :     0.028205
      f+1     :     0.005031
      f-1     :     0.008333
      f+2     :     0.002408
      f-2     :     0.002480
      f+3     :     0.003830
      f-3     :     0.002508

  9 C s       :     3.283413  s :     3.283413
      pz      :     0.916470  p :     2.239565
      px      :     0.736034
      py      :     0.587061
      dz2     :     0.032161  d :     0.213396
      dxz     :     0.027021
      dyz     :     0.042358
      dx2y2   :     0.054127
      dxy     :     0.057729
      f0      :     0.001641  f :     0.026282
      f+1     :     0.003098
      f-1     :     0.003749
      f+2     :     0.004397
      f-2     :     0.003222
      f+3     :     0.006925
      f-3     :     0.003250

 10 F s       :     3.922501  s :     3.922501
      pz      :     1.891087  p :     5.225546
      px      :     1.881992
      py      :     1.452467
      dz2     :     0.002052  d :     0.014562
      dxz     :     0.000303
      dyz     :     0.002795
      dx2y2   :     0.005521
      dxy     :     0.003891
      f0      :     0.000050  f :     0.000633
      f+1     :     0.000016
      f-1     :     0.000127
      f+2     :     0.000071
      f-2     :     0.000018
      f+3     :     0.000168
      f-3     :     0.000182

 11 F s       :     3.921885  s :     3.921885
      pz      :     1.467733  p :     5.227737
      px      :     1.897488
      py      :     1.862517
      dz2     :     0.006373  d :     0.014093
      dxz     :     0.003317
      dyz     :     0.003535
      dx2y2   :     0.000430
      dxy     :     0.000437
      f0      :     0.000225  f :     0.000623
      f+1     :     0.000135
      f-1     :     0.000182
      f+2     :     0.000037
      f-2     :     0.000038
      f+3     :     0.000003
      f-3     :     0.000003

 12 F s       :     3.918867  s :     3.918867
      pz      :     1.803867  p :     5.215565
      px      :     1.899744
      py      :     1.511954
      dz2     :     0.002005  d :     0.015747
      dxz     :     0.000778
      dyz     :     0.005077
      dx2y2   :     0.004684
      dxy     :     0.003202
      f0      :     0.000080  f :     0.000699
      f+1     :     0.000004
      f-1     :     0.000122
      f+2     :     0.000188
      f-2     :     0.000063
      f+3     :     0.000107
      f-3     :     0.000136

 13 F s       :     3.921479  s :     3.921479
      pz      :     1.439681  p :     5.217914
      px      :     1.901939
      py      :     1.876293
      dz2     :     0.008029  d :     0.015586
      dxz     :     0.003593
      dyz     :     0.003408
      dx2y2   :     0.000274
      dxy     :     0.000282
      f0      :     0.000344  f :     0.000689
      f+1     :     0.000152
      f-1     :     0.000163
      f+2     :     0.000011
      f-2     :     0.000017
      f+3     :     0.000001
      f-3     :     0.000001

 14 F s       :     3.918465  s :     3.918465
      pz      :     1.698633  p :     5.213578
      px      :     1.898730
      py      :     1.616215
      dz2     :     0.002585  d :     0.015865
      dxz     :     0.001566
      dyz     :     0.006256
      dx2y2   :     0.002996
      dxy     :     0.002462
      f0      :     0.000078  f :     0.000702
      f+1     :     0.000013
      f-1     :     0.000189
      f+2     :     0.000196
      f-2     :     0.000104
      f+3     :     0.000058
      f-3     :     0.000063

 15 F s       :     3.918639  s :     3.918639
      pz      :     1.492202  p :     5.214328
      px      :     1.902065
      py      :     1.820061
      dz2     :     0.006508  d :     0.015840
      dxz     :     0.003178
      dyz     :     0.004753
      dx2y2   :     0.000618
      dxy     :     0.000785
      f0      :     0.000234  f :     0.000701
      f+1     :     0.000107
      f-1     :     0.000241
      f+2     :     0.000052
      f-2     :     0.000058
      f+3     :     0.000005
      f-3     :     0.000004

 16 F s       :     3.919138  s :     3.919138
      pz      :     1.583940  p :     5.212825
      px      :     1.898382
      py      :     1.730502
      dz2     :     0.004325  d :     0.015881
      dxz     :     0.002519
      dyz     :     0.006025
      dx2y2   :     0.001496
      dxy     :     0.001516
      f0      :     0.000118  f :     0.000701
      f+1     :     0.000055
      f-1     :     0.000263
      f+2     :     0.000127
      f-2     :     0.000100
      f+3     :     0.000021
      f-3     :     0.000018

 17 F s       :     3.918962  s :     3.918962
      pz      :     1.594933  p :     5.212516
      px      :     1.898934
      py      :     1.718650
      dz2     :     0.004111  d :     0.015915
      dxz     :     0.002421
      dyz     :     0.006141
      dx2y2   :     0.001629
      dxy     :     0.001612
      f0      :     0.000110  f :     0.000704
      f+1     :     0.000049
      f-1     :     0.000260
      f+2     :     0.000137
      f-2     :     0.000102
      f+3     :     0.000024
      f-3     :     0.000022

 18 F s       :     3.919141  s :     3.919141
      pz      :     1.711226  p :     5.215151
      px      :     1.900923
      py      :     1.603003
      dz2     :     0.002473  d :     0.015904
      dxz     :     0.001458
      dyz     :     0.006227
      dx2y2   :     0.003202
      dxy     :     0.002544
      f0      :     0.000078  f :     0.000703
      f+1     :     0.000010
      f-1     :     0.000181
      f+2     :     0.000203
      f-2     :     0.000098
      f+3     :     0.000063
      f-3     :     0.000070

 19 F s       :     3.919051  s :     3.919051
      pz      :     1.488123  p :     5.214801
      px      :     1.899483
      py      :     1.827196
      dz2     :     0.006706  d :     0.015845
      dxz     :     0.003304
      dyz     :     0.004603
      dx2y2   :     0.000558
      dxy     :     0.000675
      f0      :     0.000246  f :     0.000704
      f+1     :     0.000116
      f-1     :     0.000234
      f+2     :     0.000046
      f-2     :     0.000054
      f+3     :     0.000004
      f-3     :     0.000003

 20 F s       :     3.917785  s :     3.917785
      pz      :     1.815592  p :     5.219755
      px      :     1.898517
      py      :     1.505646
      dz2     :     0.001957  d :     0.015660
      dxz     :     0.000641
      dyz     :     0.004911
      dx2y2   :     0.004851
      dxy     :     0.003300
      f0      :     0.000080  f :     0.000697
[...]
      pz      :     0.000006  p :    -0.000006
      px      :    -0.000003
      py      :    -0.000009
      dz2     :    -0.000000  d :    -0.000002
      dxz     :    -0.000001
      dyz     :    -0.000001
      dx2y2   :    -0.000000
      dxy     :    -0.000000
      f0      :    -0.000000  f :    -0.000000
      f+1     :    -0.000000
      f-1     :    -0.000000
      f+2     :    -0.000000
      f-2     :    -0.000000
      f+3     :    -0.000000
      f-3     :    -0.000000

 16 F s       :     0.000022  s :     0.000022
      pz      :     0.000015  p :     0.000142
      px      :     0.000072
      py      :     0.000055
      dz2     :     0.000000  d :    -0.000001
      dxz     :    -0.000002
      dyz     :     0.000000
      dx2y2   :     0.000000
      dxy     :     0.000000
      f0      :     0.000000  f :    -0.000000
      f+1     :     0.000000
      f-1     :    -0.000000
      f+2     :     0.000000
      f-2     :    -0.000000
      f+3     :    -0.000000
      f-3     :    -0.000000

 17 F s       :    -0.000002  s :    -0.000002
      pz      :     0.000016  p :    -0.000026
      px      :    -0.000037
      py      :    -0.000005
      dz2     :    -0.000001  d :    -0.000006
      dxz     :    -0.000003
      dyz     :    -0.000001
      dx2y2   :     0.000000
      dxy     :    -0.000001
      f0      :    -0.000000  f :    -0.000000
      f+1     :    -0.000000
      f-1     :    -0.000000
      f+2     :     0.000000
      f-2     :    -0.000000
      f+3     :    -0.000000
      f-3     :     0.000000

 18 F s       :     0.000003  s :     0.000003
      pz      :     0.000037  p :     0.000609
      px      :     0.000140
      py      :     0.000431
      dz2     :    -0.000004  d :    -0.000017
      dxz     :     0.000002
      dyz     :    -0.000003
      dx2y2   :    -0.000006
      dxy     :    -0.000004
      f0      :    -0.000000  f :    -0.000001
      f+1     :     0.000000
      f-1     :    -0.000000
      f+2     :    -0.000000
      f-2     :    -0.000000
      f+3     :    -0.000000
      f-3     :    -0.000000

 19 F s       :     0.000575  s :     0.000575
      pz      :     0.000075  p :     0.004308
      px      :     0.003909
      py      :     0.000324
      dz2     :     0.000022  d :     0.000072
      dxz     :    -0.000009
      dyz     :    -0.000004
      dx2y2   :     0.000054
      dxy     :     0.000010
      f0      :    -0.000000  f :    -0.000000
      f+1     :     0.000000
      f-1     :    -0.000000
      f+2     :    -0.000000
      f-2     :    -0.000000
      f+3     :     0.000000
      f-3     :     0.000000

 20 F s       :    -0.000007  s :    -0.000007
      pz      :     0.001070  p :    -0.000090
      px      :    -0.001233
      py      :     0.000074
      dz2     :    -0.000053  d :     0.000011
      dxz     :     0.000104
      dyz     :     0.000045
      dx2y2   :    -0.000003
      dxy     :    -0.000083
      f0      :     0.000001  f :     0.000001
      f+1     :     0.000000
      f-1     :    -0.000003
      f+2     :     0.000001
      f-2     :     0.000004
      f+3     :    -0.000003
      f-3     :     0.000001

 21 F s       :     0.001538  s :     0.001538
      pz      :     0.013216  p :     0.030226
      px      :     0.008168
      py      :     0.008842
      dz2     :     0.000103  d :     0.001001
      dxz     :     0.000403
      dyz     :     0.000423
      dx2y2   :     0.000012
      dxy     :     0.000059
      f0      :    -0.000002  f :     0.000050
      f+1     :     0.000023
      f-1     :     0.000019
      f+2     :     0.000004
      f-2     :     0.000006
      f+3     :     0.000000
      f-3     :    -0.000000

 22 F s       :     0.003412  s :     0.003412
      pz      :     0.080176  p :     0.075833
      px      :    -0.001067
      py      :    -0.003276
      dz2     :     0.003673  d :     0.008883
      dxz     :     0.000387
      dyz     :     0.003988
      dx2y2   :     0.000718
      dxy     :     0.000118
      f0      :    -0.000003  f :     0.000457
      f+1     :     0.000020
      f-1     :     0.000332
      f+2     :     0.000043
      f-2     :     0.000024
      f+3     :     0.000011
      f-3     :     0.000030

 23 F s       :     0.003452  s :     0.003452
      pz      :     0.075000  p :     0.076537
      px      :    -0.004591
      py      :     0.006128
      dz2     :     0.000159  d :     0.008891
      dxz     :     0.005155
      dyz     :     0.002534
      dx2y2   :     0.000306
      dxy     :     0.000737
      f0      :     0.000155  f :     0.000459
      f+1     :    -0.000001
      f-1     :    -0.000001
      f+2     :     0.000026
      f-2     :     0.000235
      f+3     :     0.000028
      f-3     :     0.000017

 24 H s       :    -0.000000  s :    -0.000000
      pz      :    -0.000000  p :    -0.000000
      px      :     0.000000
      py      :     0.000000



                      *****************************
                      * MAYER POPULATION ANALYSIS *
                      *****************************

  NA   - Mulliken gross atomic population
  ZA   - Total nuclear charge
  QA   - Mulliken gross atomic charge
  VA   - Mayer's total valence
  BVA  - Mayer's bonded valence
  FA   - Mayer's free valence

  ATOM       NA         ZA         QA         VA         BVA        FA
  0 C      5.7770     6.0000     0.2230     4.4096     4.4096     0.0000
  1 O      8.3380     8.0000    -0.3380     2.1988     2.1988     0.0000
  2 O      8.2877     8.0000    -0.2877     2.2147     2.2147     0.0000
  3 C      5.6235     6.0000     0.3765     4.1782     4.1782     0.0000
  4 C      5.7335     6.0000     0.2665     4.2153     4.2153     0.0000
  5 C      5.7094     6.0000     0.2906     4.2548     4.2548     0.0000
  6 C      5.7005     6.0000     0.2995     4.2483     4.2483     0.0000
  7 C      5.7187     6.0000     0.2813     4.1999     4.1999     0.0000
  8 C      5.6536     6.0000     0.3464     4.1874     4.1864     0.0010
  9 C      5.7683     6.0000     0.2317     4.0601     3.3799     0.6802
 10 F      9.1588     9.0000    -0.1588     1.1622     1.1622     0.0000
 11 F      9.1545     9.0000    -0.1545     1.1701     1.1701     0.0000
 12 F      9.1518     9.0000    -0.1518     1.1788     1.1788     0.0000
 13 F      9.1533     9.0000    -0.1533     1.1754     1.1754     0.0000
 14 F      9.1488     9.0000    -0.1488     1.1803     1.1803     0.0000
 15 F      9.1472     9.0000    -0.1472     1.1821     1.1821     0.0000
 16 F      9.1472     9.0000    -0.1472     1.1822     1.1822     0.0000
 17 F      9.1481     9.0000    -0.1481     1.1810     1.1810     0.0000
 18 F      9.1507     9.0000    -0.1507     1.1794     1.1794     0.0000
 19 F      9.1486     9.0000    -0.1486     1.1797     1.1796     0.0000
 20 F      9.1530     9.0000    -0.1530     1.1661     1.1660     0.0000
 21 F      9.1581     9.0000    -0.1581     1.1596     1.1585     0.0011
 22 F      9.1274     9.0000    -0.1274     1.1924     1.1858     0.0066
 23 F      9.1250     9.0000    -0.1250     1.1972     1.1905     0.0067
 24 H      0.6174     1.0000     0.3826     0.8787     0.8787     0.0000

  Mayer bond orders larger than 0.100000
B(  0-C ,  1-O ) :   1.3149 B(  0-C ,  2-O ) :   2.0731 B(  0-C ,  3-C ) :   0.9057 
B(  1-O , 24-H ) :   0.8194 B(  3-C ,  4-C ) :   0.9586 B(  3-C , 10-F ) :   1.1000 
B(  3-C , 11-F ) :   1.1190 B(  4-C ,  5-C ) :   0.9503 B(  4-C , 12-F ) :   1.0950 
B(  4-C , 13-F ) :   1.0893 B(  5-C ,  6-C ) :   0.9526 B(  5-C , 14-F ) :   1.0959 
B(  5-C , 15-F ) :   1.0977 B(  6-C ,  7-C ) :   0.9499 B(  6-C , 16-F ) :   1.0989 
B(  6-C , 17-F ) :   1.0957 B(  7-C ,  8-C ) :   0.9430 B(  7-C , 18-F ) :   1.0932 
B(  7-C , 19-F ) :   1.0955 B(  8-C ,  9-C ) :   0.9743 B(  8-C , 20-F ) :   1.0910 
B(  8-C , 21-F ) :   1.0835 B(  9-C , 22-F ) :   1.1503 B(  9-C , 23-F ) :   1.1515 


-------
TIMINGS
-------

Total SCF time: 0 days 0 hours 0 min 48 sec 

Total time                  ....      48.896 sec
Sum of individual times     ....      47.636 sec  ( 97.4%)

SCF preparation             ....       1.451 sec  (  3.0%)
Fock matrix formation       ....      40.505 sec  ( 82.8%)
  Startup                   ....       0.180 sec  (  0.4% of F)
  Split-RI-J                ....       2.663 sec  (  6.6% of F)
  Chain of spheres X        ....      25.912 sec  ( 64.0% of F)
  XC integration            ....       9.004 sec  ( 22.2% of F)
    XC Preparation          ....       0.000 sec  (  0.0% of XC)
    Basis function eval.    ....       0.631 sec  (  7.0% of XC)
    Density eval.           ....       2.782 sec  ( 30.9% of XC)
    XC-Functional eval.     ....       0.109 sec  (  1.2% of XC)
    XC-Potential eval.      ....       3.003 sec  ( 33.4% of XC)
  CPCM terms                ....       2.294 sec  (  5.7% of F)
Diagonalization             ....       0.000 sec  (  0.0%)
Density matrix formation    ....       0.529 sec  (  1.1%)
Total Energy calculation    ....       0.327 sec  (  0.7%)
Population analysis         ....       0.558 sec  (  1.1%)
Orbital Transformation      ....       0.498 sec  (  1.0%)
Orbital Orthonormalization  ....       0.000 sec  (  0.0%)
DIIS solution               ....       0.776 sec  (  1.6%)
SOSCF solution              ....       2.993 sec  (  6.1%)
Finished LeanSCF after  49.5 sec

Maximum memory used throughout the entire LEANSCF-calculation: 109.5 MB


-------------------------------------------------------------------------------
                          DFT DISPERSION CORRECTION                            
                                                                               
                              DFTD3 V3.1  Rev 1                                
                          USING Becke-Johnson damping                          
-------------------------------------------------------------------------------
The TPSSH functional is recognized
Active option DFTDOPT                   ...         4   

molecular C6(AA) [au] = 6520.349089 


            DFT-D V3
 parameters
 s6 scaling factor         :     1.0000 
 a1 scaling factor         :     0.4529 
 s8 scaling factor         :     2.2382 
 a2 scaling factor         :     4.6550 
 ad hoc parameters k1-k3   :    16.0000     1.3333    -4.0000 

 Edisp/kcal,au: -18.836278223142  -0.030017516854 
 E6   /kcal   :  -9.135856374 
 E8   /kcal   :  -9.700421849 
 % E8         :  51.498612060 

-------------------------   ----------------
Dispersion correction           -0.030017517
-------------------------   ----------------


-------------------------   --------------------
FINAL SINGLE POINT ENERGY     -1854.390098938897
-------------------------   --------------------

                                *** OPTIMIZATION RUN DONE ***



           ************************************************************
           *        Program running with 20 parallel MPI-processes    *
           *              working on a common directory               *
           ************************************************************

------------------------------------------------------------------------------
                              ORCA PROPERTY CALCULATIONS
------------------------------------------------------------------------------

GBWName                                 ... rf_mecn_opt_TP_C8_P_B.gbw
Number of atoms                         ...     25
Number of basis functions               ...    750
Max core memory                         ...   8000 MB

Electric properties:
Dipole moment                           ... YES
Quadrupole moment                       ...  NO
Static polarizability (Dipole/Dipole)   ...  NO
Static polarizability (Dipole/Quad.)    ...  NO
Static polarizability (Quad./Quad.)     ...  NO
Static polarizability (Velocity)        ...  NO

Atomic electric properties:
Dipole moment                           ...  NO
Quadrupole moment                       ...  NO
Static polarizability                   ...  NO

Choice of electric origin               ... Center of mass
Position of electric origin             ...     0.313589    -0.135129     0.171722

General magnetic properties:
Magnetizability                         ...  NO

EPR properties:
g-Tensor (aka g-matrix)                 ...  NO
Zero-Field splitting spin-orbit         ...  NO
Zero-field splitting spin-spin          ...  NO
Hyperfine couplings                     ...  NO (   0 nuclei)
Quadrupole couplings                    ...  NO (   0 nuclei)
Contact density                         ...  NO (   0 nuclei)

NMR properties:
Chemical shifts                         ...  NO (   0 nuclei)
Spin-rotation constants                 ...  NO (   0 nuclei)
Spin-spin couplings                     ...  NO (   0 nuclei,    0 pairs)

Choice of magnetic origin               ... GIAO
Position of magnetic origin             ...     0.000000     0.000000     0.000000

Properties with geometric perturbations:
SCF Hessian                             ...  NO
IR spectrum                             ...  NO
VCD spectrum                            ...  NO
X-ray spectroscopy properties:
SCF XES/XAS/RIXS spectra                ...  NO


-------------
DIPOLE MOMENT
-------------

Method             : SCF
Type of density    : Electron Density
Multiplicity       :   2
Irrep              :   0
Energy             : -1854.3600814220430948 Eh
Relativity type    : 
Basis              : AO
                                X                 Y                 Z
Electronic contribution:    -13.583057221      -0.272335511       2.062707041
Nuclear contribution   :     14.133193068      -0.220746039      -3.059675279
                        -----------------------------------------
Total Dipole Moment    :      0.550135848      -0.493081550      -0.996968238
                        -----------------------------------------
Magnitude (a.u.)       :      1.240856371
Magnitude (Debye)      :      3.154006242



--------------------
Rotational spectrum 
--------------------
 
Rotational constants in cm-1:             0.022591             0.004059             0.003967 
Rotational constants in MHz :           677.271251           121.683742           118.914485 

Dipole components along the rotational axes: 
x,y,z [a.u.] :    -0.596583     0.337622     1.034323 
x,y,z [Debye]:    -1.516395     0.858168     2.629040 

 

Dipole moment calculation done in   0.1 sec 

Maximum memory used throughout the entire PROP-calculation: 56.9 MB

--------------------------------
SUGGESTED CITATIONS FOR THIS RUN
--------------------------------

Below you find a list of papers that are relevant to this ORCA run
We neither can nor want to force you to cite these papers, but we appreciate if you do
You receive ORCA, which is the product of decades of hard work by many enthusiastic individuals, for free
The only thing we kindly ask in return is that you cite our papers,
We deeply appreciate it, if you show your appreciation for ORCA by not just citing the generic ORCA reference.

Please note that relegating all ORCA citations to the supporting information does *not* help us.
SI sections are not indexed - citations you put there will not count into any citation statistics
But we need these citations in order to attract the funding resources that allow us to do what we are doing

Therefore, if you are a happy ORCA user, please consider citing a few of the papers listed below in the main body of your paper

In addition to the list printed below, the program has created the file rf_mecn_opt_TP_C8_P_B.bibtex that contains the list in bibtex format
You can import this file easily into all common literature databanks and citation aid programs


List of essential papers. We consider these as the minimum necessary citations

  1. Neese,F.
     Software update: the ORCA program system, version 5.0
     WIRES Comput. Molec. Sci., 2022 12(1)e1606
     doi.org/10.1002/wcms.1606

List of papers to cite with high priority. The work reported in these papers was absolutely
necessary for this run to complete.
Our perspective: the developers of density functionals and basis sets usually get cited in chemistry papers
Good! But without the algorithms to do something with them, the functionals or basis sets would not do anything.
Hence, in our opinion, the algorithm design and method developments papers are equally worthy of getting cited

  1. Neese,F.
     An improvement of the resolution of the identity approximation for the formation of the Coulomb matrix
     J. Comp. Chem., 2003 24(14)1740-1747
     doi.org/10.1002/jcc.10318
  2. Neese,F.; Wennmohs,F.; Hansen,A.; Becker,U.
     Efficient, approximate and parallel Hartree-Fock and hybrid DFT calculations. A 'chain-of-spheres' algorithm for the Hartree-Fock exchange
     Chem. Phys., 2009 356(1-3)98-109
     doi.org/10.1016/j.chemphys.2008.10.036
  3. Garcia-Rates,M.; Neese,F.
     Effect of the Solute Cavity on the Solvation Energy and its Derivatives within the Framework of the Gaussian Charge Scheme
     J. Comput. Chem., 2020 41 922-939
     doi.org/10.1002/jcc.26139
  4. Helmich-Paris,B.; de Souza,B.; Neese,F.; Izsák,R.
     An improved chain of spheres for exchange algorithm
     J. Chem. Phys., 2021 155 104109
     doi.org/doi: 10.1063/5.0058766.
  5. Neese,F.
     The SHARK Integral Generation and Digestion System
     J. Comp. Chem., 2022  1-16
     doi.org/10.1002/jcc.26942
  6. Grimme,S.; Antony,J.; Ehrlich,S.; Krieg,H.
     A consistent and accurate ab initio parametrization of density functional dispersion correction (DFT-D) for the 94 elements H-Pu
     J. Chem. Phys., 2010 132 154104
     doi.org/10.1063/1.3382344
  7. Grimme,S.; Ehrlich,S.; Goerigk,L.
     Effect of the damping function in dispersion corrected density functional theory
     J. Comput. Chem., 2011 32(7)1456-1465
     doi.org/10.1002/jcc.21759

List of suggested additional citations. These are papers that are important in the 'surrounding' of 
of this run, or papers that preceded the highly important papers. If you like your results we are grateful for a citation.

  1. Izsak,R.; Neese,F.
     An overlap fitted chain of spheres exchange method
     J. Chem. Phys., 2011 135 144105
     doi.org/10.1063/1.3646921
  2. Izsak,R.; Hansen,A.; Neese,F.
     The resolution of identity and chain of spheres approximations for the LPNO-CCSD singles Fock term
     Molec. Phys., 2012 110 2413-2417
     doi.org/10.1080/00268976.2012.687466
  3. Neese,F.
     The ORCA program system
     WIRES Comput. Molec. Sci., 2012 2(1)73-78
     doi.org/10.1002/wcms.81
  4. Izsak,R.; Neese,F.; Klopper,W.
     Robust fitting techniques in the chain of spheres approximation to the Fock exchange: The role of the complementary space
     J. Chem. Phys., 2013 139 
     doi.org/10.1063/1.4819264
  5. Neese,F.
     Software update: the ORCA program system, version 4.0
     WIRES Comput. Molec. Sci., 2018 8(1)1-6
     doi.org/10.1002/wcms.1327
  6. Neese,F.; Wennmohs,F.; Becker,U.; Riplinger,C.
     The ORCA quantum chemistry program package
     J. Chem. Phys., 2020 152 Art. No. L224108
     doi.org/10.1063/5.0004608

List of optional additional citations

  1. Neese,F.
     Approximate second-order SCF convergence for spin unrestricted wavefunctions
     Chem. Phys. Lett., 2000 325(1-3)93-98
     doi.org/10.1016/s0009-2614(00)00662-x

Timings for individual modules:

Sum of individual times          ...     3530.893 sec (=  58.848 min)
Startup calculation              ...      173.910 sec (=   2.898 min)   4.9 %
SCF iterations                   ...     2512.910 sec (=  41.882 min)  71.2 %
Property calculations            ...        1.052 sec (=   0.018 min)   0.0 %
SCF Gradient evaluation          ...      842.274 sec (=  14.038 min)  23.9 %
Geometry relaxation              ...        0.747 sec (=   0.012 min)   0.0 %
                             ****ORCA TERMINATED NORMALLY****
TOTAL RUN TIME: 0 days 0 hours 59 minutes 19 seconds 15 msec
