
                                 *****************
                                 * O   R   C   A *
                                 *****************

                                            #,                                       
                                            ###                                      
                                            ####                                     
                                            #####                                    
                                            ######                                   
                                           ########,                                 
                                     ,,################,,,,,                         
                               ,,#################################,,                 
                          ,,##########################################,,             
                       ,#########################################, ''#####,          
                    ,#############################################,,   '####,        
                  ,##################################################,,,,####,       
                ,###########''''           ''''###############################       
              ,#####''   ,,,,##########,,,,          '''####'''          '####       
            ,##' ,,,,###########################,,,                        '##       
           ' ,,###''''                  '''############,,,                           
         ,,##''                                '''############,,,,        ,,,,,,###''
      ,#''                                            '''#######################'''  
     '                                                          ''''####''''         
             ,#######,   #######,   ,#######,      ##                                
            ,#'     '#,  ##    ##  ,#'     '#,    #''#        ,####,   ,####,        
            ##       ##  ##   ,#'  ##            #'  '#       #'       #'  '#        
            ##       ##  #######   ##           ,######,      #####,   #    #        
            '#,     ,#'  ##    ##  '#,     ,#' ,#      #,     #,   #   #,  ,#        
             '#######'   ##     ##  '#######'  #'      '#     '####' # '####'        



                #########################################################
                #                        -***-                          #
                #          Department of theory and spectroscopy        #
                #                                                       #
                #                      Frank Neese                      #
                #                                                       #
                #     Directorship, Architecture, Infrastructure        #
                #                    SHARK, DRIVERS                     #
                #        Core code/Algorithms in most modules           #
                #                                                       #
                #        Max Planck Institute fuer Kohlenforschung      #
                #                Kaiser Wilhelm Platz 1                 #
                #                 D-45470 Muelheim/Ruhr                 #
                #                      Germany                          #
                #                                                       #
                #                  All rights reserved                  #
                #                        -***-                          #
                #########################################################


                         Program Version 6.0.1  -  RELEASE   -


 With contributions from (in alphabetic order):
[Max-Planck-Institut fuer Kohlenforschung]                               
  Daniel Aravena         : Magnetic Suceptibility                        
  Michael Atanasov       : Ab Initio Ligand Field Theory (pilot matlab implementation)
  Alexander A. Auer      : GIAO ZORA, VPT2 properties, NMR spectrum      
  Ute Becker             : All parallelization in ORCA, NUMFREQ, NUMCALC 
  Giovanni Bistoni       : ED, misc. LED, open-shell LED, HFLD           
  Martin Brehm           : Molecular dynamics                            
  Dmytro Bykov           : pre 5.0 version of the SCF Hessian            
  Marcos Casanova-Páez   : Triplet and SCS-CIS(D). UHF-(DLPNO)-IP/EA/STEOM-CCSD. UHF-CVS-IP/STEOM-CCSD   
  Vijay G. Chilkuri      : MRCI spin determinant printing, contributions to CSF-ICE 
  Pauline Colinet        : FMM embedding                                 
  Dipayan Datta          : RHF DLPNO-CCSD density                        
  Achintya Kumar Dutta   : EOM-CC, STEOM-CC                              
  Nicolas Foglia         : Exact transition moments, OPA infrastructure, MCD improvements    
  Dmitry Ganyushin       : Spin-Orbit,Spin-Spin,Magnetic field MRCI      
  Miquel Garcia-Rates    : C-PCM and meta-GGA Hessian, CCSD/C-PCM, Gaussian charge scheme 
  Tiago L. C. Gouveia    : GS-ROHF, GS-ROCIS                             
  Yang Guo               : DLPNO-NEVPT2, F12-NEVPT2, CIM, IAO-localization        
  Andreas Hansen         : Spin unrestricted coupled pair/coupled cluster methods 
  Ingolf Harden          : AUTO-CI MPn and infrastructure                
  Benjamin Helmich-Paris : MC-RPA, TRAH-(SCF,CASSCF), AVAS, COSX integrals, SCF dyn. polar. 
  Lee Huntington         : MR-EOM, pCC                                   
  Robert Izsak           : Overlap fitted RIJCOSX, COSX-SCS-MP3, EOM     
  Riya Kayal             : Wick's Theorem for AUTO-CI, AUTO-CI UHF-CCSDT 
  Emily Kempfer          : AUTO-CI, RHF CISDT and CCSDT                  
  Christian Kollmar      : KDIIS, OOCD, Brueckner-CCSD(T), CCSD density, CASPT2, CASPT2-K, improved NEVPT2 
  Axel Koslowski         : Symmetry handling                             
  Simone Kossmann        : meta-GGA functionals, TD-DFT gradient, OOMP2, (MP2 Hessian; deprecated post 5.0) 
  Lucas Lang             : DCDCAS                                        
  Marvin Lechner         : AUTO-CI (C++ implementation), FIC-MRCC        
  Spencer Leger          : CASSCF response                               
  Dagmar Lenk            : GEPOL surface, SMD, ORCA-2-JSON               
  Dimitrios Liakos       : Extrapolation schemes; Compound Job, initial MDCI parallelization 
  Dimitrios Manganas     : Further ROCIS development; embedding schemes. LFT, Crystal Embedding 
  Dimitrios Pantazis     : SARC Basis sets                               
  Anastasios Papadopoulos: AUTO-CI, single reference methods and gradients 
  Taras Petrenko         : pre 6.0 DFT Hessian and TD-DFT gradient, (ASA, deprecated), ECA, 1-Electron XAS/XES, NRVS 
  Peter Pinski           : DLPNO-MP2, DLPNO-MP2 Gradient                 
  Christoph Reimann      : Effective Core Potentials                     
  Marius Retegan         : Local ZFS, SOC                                
  Christoph Riplinger    : Optimizer, TS searches, QM/MM, DLPNO-CCSD(T), (RO)-DLPNO pert. Triples 
  Michael Roemelt        : Original ROCIS implementation                 
  Masaaki Saitow         : Open-shell DLPNO-CCSD energy and density      
  Barbara Sandhoefer     : DKH picture change effects                    
  Kantharuban Sivalingam : CASSCF convergence/infrastructure, NEVPT2 and variants, FIC-MRCI 
  Bernardo de Souza      : ESD, SOC TD-DFT                               
  Georgi L. Stoychev     : AutoAux, RI-MP2 NMR, DLPNO-MP2 response, X2C  
  Van Anh Tran           : RI-MP2 g-tensors                              
  Willem Van den Heuvel  : Paramagnetic NMR                              
  Zikuan Wang            : NOTCH, Electric field optimization            
  Frank Wennmohs         : Technical directorship and infrastructure     
  Hang Xu                : AUTO-CI-Response properties                   
                                                                         
[FACCTs GmbH]                                                            
  Markus Bursch, Miquel Garcia-Rates, Christoph Riplinger, Bernardo de Souza, Georgi L. Stoychev 
                                                                 
  APM, Basis sets (HGBS, AHGBS, def-TZVP (Ac-Lr), def2-XVPD (La-Lu)), CI-OPT, improved COSX, DLPNO-Multilevel,           
  DOCKER, DRACO, updates on ESD, GOAT, IRC, LR-CPCM, MBIS, meta-GGA TD-DFT gradient, ML-optimized integration grids, 
  MM, NACMEs, nearIR, NEB, NEB-TS, NL-DFT gradient (VV10), 2- and 3-layer-ONIOM, interface openCOSMO-RS, QMMM,   
  Crystal-QMMM, SF, symmetry and pop. for TD-DFT, r2SCAN hybrids, SOLVATOR                                   
                                                                         
[Other institutions]                                                     
  V. Asgeirsson          : NEB                                           
  Christoph Bannwarth    : sTDA-DFT, sTD-DFT, PBEh-3c, B97-3c, D3        
  Sebastian Ehlert       : rSCAN, r2SCAN, r2SCAN-3c, D4, dhf basis sets  
  Marvin Friede          : D4 for Fr, Ra, Ac-Lr                          
  Lars Goerigk           : TD-DFT with DH, B97 family of functionals     
  Stefan Grimme          : VdW corrections, initial TS optimization, DFT functionals, gCP, sTDA/sTD-DF 
  Waldemar Hujo          : DFT-NL                                        
  H. Jonsson             : NEB                                           
  Holger Kruse           : gCP                                           
  Marcel Mueller         : wB97X-3c, vDZP basis set                      
  Hagen Neugebauer       : wr2SCAN                                       
  Tobias Risthaus        : range-separated hybrid DFT                    
  Lukas Wittmann         : regularized MP2, r2SCAN double-hybrids, wr2SCAN        
                                                                         
We gratefully acknowledge several colleagues who have allowed us to      
interface, adapt or use parts of their codes:                            
  Ed Valeev, F. Pavosevic, A. Kumar             : LibInt (2-el integral package), F12 methods 
  Garnet Chan, S. Sharma, J. Yang, R. Olivares  : DMRG                   
  Ulf Ekstrom                                   : XCFun DFT Library      
  Mihaly Kallay                                 : mrcc  (arbitrary order and MRCC methods)
  Frank Weinhold                                : gennbo (NPA and NBO analysis)           
  Simon Mueller                                 : openCOSMO-RS                            
  Christopher J. Cramer and Donald G. Truhlar   : smd solvation model                     
  S Lehtola, MJT Oliveira, MAL Marques          : LibXC Library                           
  Liviu Ungur et al                             : ANISO software                          


 Your calculation uses the libint2 library for the computation of 2-el integrals
 For citations please refer to: http://libint.valeyev.net

 Your ORCA version has been built with support for libXC version: 6.2.2
 For citations please refer to: https://libxc.gitlab.io

 This ORCA versions uses:
   CBLAS   interface :  Fast vector & matrix operations
   LAPACKE interface :  Fast linear algebra routines
   SCALAPACK package :  Parallel linear algebra routines
   Shared memory     :  Shared parallel matrices
   BLAS/LAPACK       :  OpenBLAS 0.3.27  USE64BITINT DYNAMIC_ARCH NO_AFFINITY SkylakeX SINGLE_THREADED
        Core in use  :  SkylakeX
   Copyright (c) 2011-2014, The OpenBLAS Project


NOTE: MaxCore=8000 MB was set to SCF,MP2,MDCI,CIPSI,MRCI and CIS
      => If you want to overwrite this, your respective input block should be placed after the MaxCore statement
Your calculation utilizes the atom-pairwise dispersion correction
with the Becke-Johnson damping scheme (D3BJ)


Your calculation utilizes the SMD solvation module
Please cite in your paper:
A.V. Marenich, C.J. Cramer, D.G. Truhlar J. Phys. Chem. B, 113, (2009), 6378 

Warning: RI is on but no J-basis has been assigned. Assigning Def2/J (nothing to worry about!)
================================================================================

----- Orbital basis set information -----
Your calculation utilizes the basis: def2-TZVP
   F. Weigend and R. Ahlrichs, Phys. Chem. Chem. Phys. 7, 3297 (2005).

----- AuxJ basis set information -----
Your calculation utilizes the auxiliary basis: def2/J
   F. Weigend, Phys. Chem. Chem. Phys. 8, 1057 (2006).

================================================================================
                                        WARNINGS
                       Please study these warnings very carefully!
================================================================================


================================================================================
                                       INPUT FILE
================================================================================
NAME = rf_mecn_freq_TP_P_A.inp
|  1> !TPSSh def2-TZVP freq d3 TightSCF SlowConv defgrid2
|  2>  
|  3> %pal
|  4> nprocs 20
|  5> end
|  6>  
|  7> %scf
|  8> MaxIter 1500
|  9> end
| 10>  
| 11> %maxcore 8000
| 12>  
| 13> !CPCM
| 14> %cpcm smd true
| 15> SMDsolvent "ACETONITRILE"
| 16> end
| 17>  
| 18> * xyz 0 1
| 19> 6        4.787978000     -0.031642000     -0.227908000
| 20> 8        5.164428000     -0.826267000     -1.220449000
| 21> 8        5.327449000      0.972628000      0.148858000
| 22> 6        3.483805000     -0.547478000      0.438770000
| 23> 6        2.222374000      0.125538000     -0.190029000
| 24> 6        0.863120000     -0.539879000      0.217814000
| 25> 6       -0.375873000      0.390429000     -0.020701000
| 26> 6       -1.739712000     -0.383465000     -0.028415000
| 27> 6       -2.980012000      0.547426000      0.184294000
| 28> 6       -4.346227000     -0.096282000     -0.217860000
| 29> 9        3.367498000     -1.891327000      0.314432000
| 30> 9        3.532910000     -0.240279000      1.752496000
| 31> 9        2.213071000      1.424926000      0.182361000
| 32> 9        2.341114000      0.066756000     -1.535982000
| 33> 9        0.705256000     -1.669311000     -0.505675000
| 34> 9        0.906554000     -0.867676000      1.525896000
| 35> 9       -0.409082000      1.320727000      0.956974000
| 36> 9       -0.231277000      1.013399000     -1.209479000
| 37> 9       -1.729221000     -1.305214000      0.958317000
| 38> 9       -1.868278000     -1.019201000     -1.211778000
| 39> 9       -2.828979000      1.673316000     -0.546449000
| 40> 9       -3.053551000      0.881748000      1.487868000
| 41> 9       -4.486992000     -1.301122000      0.344409000
| 42> 9       -5.334147000      0.695462000      0.210829000
| 43> 9       -4.446208000     -0.220271000     -1.542486000
| 44> 1        5.968534000     -0.454162000     -1.638283000
| 45> *
| 46> 
| 47>                          ****END OF INPUT****
================================================================================

                       ****************************
                       * Single Point Calculation *
                       ****************************

---------------------------------
CARTESIAN COORDINATES (ANGSTROEM)
---------------------------------
  C      4.787978   -0.031642   -0.227908
  O      5.164428   -0.826267   -1.220449
  O      5.327449    0.972628    0.148858
  C      3.483805   -0.547478    0.438770
  C      2.222374    0.125538   -0.190029
  C      0.863120   -0.539879    0.217814
  C     -0.375873    0.390429   -0.020701
  C     -1.739712   -0.383465   -0.028415
  C     -2.980012    0.547426    0.184294
  C     -4.346227   -0.096282   -0.217860
  F      3.367498   -1.891327    0.314432
  F      3.532910   -0.240279    1.752496
  F      2.213071    1.424926    0.182361
  F      2.341114    0.066756   -1.535982
  F      0.705256   -1.669311   -0.505675
  F      0.906554   -0.867676    1.525896
  F     -0.409082    1.320727    0.956974
  F     -0.231277    1.013399   -1.209479
  F     -1.729221   -1.305214    0.958317
  F     -1.868278   -1.019201   -1.211778
  F     -2.828979    1.673316   -0.546449
  F     -3.053551    0.881748    1.487868
  F     -4.486992   -1.301122    0.344409
  F     -5.334147    0.695462    0.210829
  F     -4.446208   -0.220271   -1.542486
  H      5.968534   -0.454162   -1.638283

----------------------------
CARTESIAN COORDINATES (A.U.)
----------------------------
  NO LB      ZA    FRAG     MASS         X           Y           Z
   0 C     6.0000    0    12.011    9.047967   -0.059795   -0.430684
   1 O     8.0000    0    15.999    9.759355   -1.561418   -2.306314
   2 O     8.0000    0    15.999   10.067420    1.838001    0.281301
   3 C     6.0000    0    12.011    6.583437   -1.034583    0.829155
   4 C     6.0000    0    12.011    4.199678    0.237232   -0.359103
   5 C     6.0000    0    12.011    1.631060   -1.020223    0.411609
   6 C     6.0000    0    12.011   -0.710297    0.737804   -0.039119
   7 C     6.0000    0    12.011   -3.287579   -0.724644   -0.053697
   8 C     6.0000    0    12.011   -5.631407    1.034485    0.348265
   9 C     6.0000    0    12.011   -8.213179   -0.181947   -0.411696
  10 F     9.0000    0    18.998    6.363649   -3.574090    0.594190
  11 F     9.0000    0    18.998    6.676232   -0.454062    3.311737
  12 F     9.0000    0    18.998    4.182098    2.692720    0.344612
  13 F     9.0000    0    18.998    4.424064    0.126151   -2.902585
  14 F     9.0000    0    18.998    1.332741   -3.154541   -0.955587
  15 F     9.0000    0    18.998    1.713139   -1.639670    2.883526
  16 F     9.0000    0    18.998   -0.773053    2.495812    1.808419
  17 F     9.0000    0    18.998   -0.437050    1.915047   -2.285584
  18 F     9.0000    0    18.998   -3.267754   -2.466497    1.810957
  19 F     9.0000    0    18.998   -3.530534   -1.926011   -2.289929
  20 F     9.0000    0    18.998   -5.345996    3.162109   -1.032639
  21 F     9.0000    0    18.998   -5.770375    1.666262    2.811663
  22 F     9.0000    0    18.998   -8.479186   -2.458764    0.650839
  23 F     9.0000    0    18.998  -10.080077    1.314233    0.398409
  24 F     9.0000    0    18.998   -8.402115   -0.416252   -2.914876
  25 H     1.0000    0     1.008   11.278895   -0.858242   -3.095906

--------------------------------
INTERNAL COORDINATES (ANGSTROEM)
--------------------------------
 C      0   0   0     0.000000000000     0.00000000     0.00000000
 O      1   0   0     1.326001934315     0.00000000     0.00000000
 O      1   2   0     1.200641416701   127.48682470     0.00000000
 C      1   2   3     1.552872676207   111.14448144   179.30098860
 C      4   1   2     1.561904890324   111.24189965   266.34165326
 C      5   4   1     1.567382254925   114.37419488   168.36486880
 C      6   5   4     1.567630707194   113.19597458   161.23378993
 C      7   6   5     1.568128899980   113.28270779   162.85342931
 C      8   7   6     1.565294624843   113.26488501   161.95955677
 C      9   8   7     1.562891952505   114.37787602   163.36869127
 F      4   1   2     1.354591226641   111.23847187    27.72593896
 F      4   1   2     1.350058713428   108.15759806   146.85121489
 F      5   4   1     1.351728535044   107.99049257   290.27329585
 F      5   4   1     1.352458498192   108.12037211    47.43214594
 F      6   5   4     1.350545822340   108.48211279   282.10138926
 F      6   5   4     1.349227891903   109.11691654    40.32386406
 F      7   6   5     1.349965041070   108.55494738   283.81792599
 F      7   6   5     1.349886201648   108.85687156    42.11189772
 F      8   7   6     1.350322672514   109.05816907    41.37749645
 F      8   7   6     1.349458212699   108.64304247   283.09594139
 F      9   8   7     1.350712623484   109.48745067    42.57848011
 F      9   8   7     1.347770142747   108.79539509   283.76802246
 F     10   9   8     1.337011832104   110.79203325    50.48027195
 F     10   9   8     1.336644585018   108.63890568   169.85633831
 F     10   9   8     1.334167722724   111.05467805   289.16751309
 H      2   1   3     0.979609024977   108.94580136   358.61338902

---------------------------
INTERNAL COORDINATES (A.U.)
---------------------------
 C      0   0   0     0.000000000000     0.00000000     0.00000000
 O      1   0   0     2.505780508904     0.00000000     0.00000000
 O      1   2   0     2.268883462607   127.48682470     0.00000000
 C      1   2   3     2.934504078880   111.14448144   179.30098860
 C      4   1   2     2.951572489945   111.24189965   266.34165326
 C      5   4   1     2.961923208976   114.37419488   168.36486880
 C      6   5   4     2.962392715722   113.19597458   161.23378993
 C      7   6   5     2.963334163650   113.28270779   162.85342931
 C      8   7   6     2.957978159852   113.26488501   161.95955677
 C      9   8   7     2.953437767144   114.37787602   163.36869127
 F      4   1   2     2.559806441765   111.23847187    27.72593896
 F      4   1   2     2.551241233092   108.15759806   146.85121489
 F      5   4   1     2.554396738640   107.99049257   290.27329585
 F      5   4   1     2.555776169078   108.12037211    47.43214594
 F      6   5   4     2.552161735535   108.48211279   282.10138926
 F      6   5   4     2.549671207945   109.11691654    40.32386406
 F      7   6   5     2.551064217989   108.55494738   283.81792599
 F      7   6   5     2.550915233074   108.85687156    42.11189772
 F      8   7   6     2.551740043477   109.05816907    41.37749645
 F      8   7   6     2.550106451172   108.64304247   283.09594139
 F      9   8   7     2.552476944014   109.48745067    42.57848011
 F      9   8   7     2.546916461268   108.79539509   283.76802246
 F     10   9   8     2.526586200489   110.79203325    50.48027195
 F     10   9   8     2.525892204072   108.63890568   169.85633831
 F     10   9   8     2.521211612665   111.05467805   289.16751309
 H      2   1   3     1.851192775525   108.94580136   358.61338902

---------------------
BASIS SET INFORMATION
---------------------
There are 4 groups of distinct atoms

 Group   1 Type C   : 11s6p2d1f contracted to 5s3p2d1f pattern {62111/411/11/1}
 Group   2 Type O   : 11s6p2d1f contracted to 5s3p2d1f pattern {62111/411/11/1}
 Group   3 Type F   : 11s6p2d1f contracted to 5s3p2d1f pattern {62111/411/11/1}
 Group   4 Type H   : 5s1p contracted to 3s1p pattern {311/1}

Atom   0C    basis set group =>   1
Atom   1O    basis set group =>   2
Atom   2O    basis set group =>   2
Atom   3C    basis set group =>   1
Atom   4C    basis set group =>   1
Atom   5C    basis set group =>   1
Atom   6C    basis set group =>   1
Atom   7C    basis set group =>   1
Atom   8C    basis set group =>   1
Atom   9C    basis set group =>   1
Atom  10F    basis set group =>   3
Atom  11F    basis set group =>   3
Atom  12F    basis set group =>   3
Atom  13F    basis set group =>   3
Atom  14F    basis set group =>   3
Atom  15F    basis set group =>   3
Atom  16F    basis set group =>   3
Atom  17F    basis set group =>   3
Atom  18F    basis set group =>   3
Atom  19F    basis set group =>   3
Atom  20F    basis set group =>   3
Atom  21F    basis set group =>   3
Atom  22F    basis set group =>   3
Atom  23F    basis set group =>   3
Atom  24F    basis set group =>   3
Atom  25H    basis set group =>   4
---------------------------------
AUXILIARY/J BASIS SET INFORMATION
---------------------------------
There are 4 groups of distinct atoms

 Group   1 Type C   : 12s5p4d2f1g contracted to 6s4p3d1f1g pattern {711111/2111/211/2/1}
 Group   2 Type O   : 12s5p4d2f1g contracted to 6s4p3d1f1g pattern {711111/2111/211/2/1}
 Group   3 Type F   : 12s5p4d2f1g contracted to 6s4p3d1f1g pattern {711111/2111/211/2/1}
 Group   4 Type H   : 5s2p1d contracted to 3s1p1d pattern {311/2/1}

Atom   0C    basis set group =>   1
Atom   1O    basis set group =>   2
Atom   2O    basis set group =>   2
Atom   3C    basis set group =>   1
Atom   4C    basis set group =>   1
Atom   5C    basis set group =>   1
Atom   6C    basis set group =>   1
Atom   7C    basis set group =>   1
Atom   8C    basis set group =>   1
Atom   9C    basis set group =>   1
Atom  10F    basis set group =>   3
Atom  11F    basis set group =>   3
Atom  12F    basis set group =>   3
Atom  13F    basis set group =>   3
Atom  14F    basis set group =>   3
Atom  15F    basis set group =>   3
Atom  16F    basis set group =>   3
Atom  17F    basis set group =>   3
Atom  18F    basis set group =>   3
Atom  19F    basis set group =>   3
Atom  20F    basis set group =>   3
Atom  21F    basis set group =>   3
Atom  22F    basis set group =>   3
Atom  23F    basis set group =>   3
Atom  24F    basis set group =>   3
Atom  25H    basis set group =>   4


           ************************************************************
           *        Program running with 20 parallel MPI-processes    *
           *              working on a common directory               *
           ************************************************************
------------------------------------------------------------------------------
                             ORCA STARTUP CALCULATIONS
                           -- RI-GTO INTEGRALS CHOSEN --
------------------------------------------------------------------------------
------------------------------------------------------------------------------
                   ___                                                        
                  /   \      - P O W E R E D   B Y -                         
                 /     \                                                     
                 |  |  |   _    _      __       _____    __    __             
                 |  |  |  | |  | |    /  \     |  _  \  |  |  /  |          
                  \  \/   | |  | |   /    \    | | | |  |  | /  /          
                 / \  \   | |__| |  /  /\  \   | |_| |  |  |/  /          
                |  |  |   |  __  | /  /__\  \  |    /   |      \           
                |  |  |   | |  | | |   __   |  |    \   |  |\   \          
                \     /   | |  | | |  |  |  |  | |\  \  |  | \   \       
                 \___/    |_|  |_| |__|  |__|  |_| \__\ |__|  \__/        
                                                                              
                      - O R C A' S   B I G   F R I E N D -                    
                                      &                                       
                       - I N T E G R A L  F E E D E R -                       
                                                                              
 v1 FN, 2020, v2 2021, v3 2022-2024                                           
------------------------------------------------------------------------------


----------------------
SHARK INTEGRAL PACKAGE
----------------------

Number of atoms                             ...     26
Number of basis functions                   ...    781
Number of shells                            ...    279
Maximum angular momentum                    ...      3
Integral batch strategy                     ... SHARK/LIBINT Hybrid
RI-J (if used) integral strategy            ... SPLIT-RIJ (Revised 2003 algorithm where possible)
Printlevel                                  ...      1
Contraction scheme used                     ... SEGMENTED contraction
Prescreening option                         ... SCHWARTZ
   Thresh                                   ... 2.500e-11
   Tcut                                     ... 2.500e-12
   Tpresel                                  ... 2.500e-12 
Coulomb Range Separation                    ... NOT USED
Exchange Range Separation                   ... NOT USED
Multipole approximations                    ... NOT USED
Finite Nucleus Model                        ... NOT USED
CABS basis                                  ... NOT available
Auxiliary Coulomb fitting basis             ... AVAILABLE
   # of basis functions in Aux-J            ...   1236
   # of shells in Aux-J                     ...    380
   Maximum angular momentum in Aux-J        ...      4
Auxiliary J/K fitting basis                 ... NOT available
Auxiliary Correlation fitting basis         ... NOT available
Auxiliary 'external' fitting basis          ... NOT available

Checking pre-screening integrals            ... done (  0.0 sec) Dimension = 279
Check shell pair data                       ... done (  0.0 sec)
Shell pair information
Shell pair cut-off parameter TPreSel        ...   2.5e-12
Total number of shell pairs                 ...     39060
Shell pairs after pre-screening             ...     23905
Total number of primitive shell pairs       ...    128824
Primitive shell pairs kept                  ...     50643
          la=0 lb=0:   4552 shell pairs
          la=1 lb=0:   6536 shell pairs
          la=1 lb=1:   2261 shell pairs
          la=2 lb=0:   3546 shell pairs
          la=2 lb=1:   2597 shell pairs
          la=2 lb=2:    729 shell pairs
          la=3 lb=0:   1606 shell pairs
          la=3 lb=1:   1250 shell pairs
          la=3 lb=2:    669 shell pairs
          la=3 lb=3:    159 shell pairs

Calculating one electron integrals          ... done (  0.0 sec)
Calculating RI/J V-Matrix + Cholesky decomp.... done (  0.1 sec)
Calculating Nuclear repulsion               ... done (  0.0 sec) ENN=   2896.608838091310 Eh

Diagonalization of the overlap matrix:
Smallest eigenvalue                        ... 5.709e-05
Time for diagonalization                   ...    0.128 sec
Threshold for overlap eigenvalues          ... 1.000e-07
Number of eigenvalues below threshold      ... 0
Time for construction of square roots      ...    0.061 sec
Total time needed                          ...    0.195 sec

-------------------
DFT GRID GENERATION
-------------------

General Integration Accuracy     IntAcc      ... 4.388
Radial Grid Type                 RadialGrid  ... OptM3 with GC (2021)
Angular Grid (max. ang.)         AngularGrid ... 4 (Lebedev-302)
Angular grid pruning method      GridPruning ... 4 (adaptive)
Weight generation scheme         WeightScheme... mBecke (2022)
Basis function cutoff            BFCut       ... 1.0000e-11
Integration weight cutoff        WCut        ... 1.0000e-14
Partially contracted basis set               ... off
Rotationally invariant grid construction     ... off
Angular grids for H and He will be reduced by one unit

Total number of grid points                  ...   154681
Total number of batches                      ...     2432
Average number of points per batch           ...       63
Average number of grid points per atom       ...     5949

--------------------
COSX GRID GENERATION
--------------------

GRIDX 1
-------
General Integration Accuracy     IntAcc      ... 3.816
Radial Grid Type                 RadialGrid  ... OptM3 with GC (2021)
Angular Grid (max. ang.)         AngularGrid ... 1 (Lebedev-50)
Angular grid pruning method      GridPruning ... 4 (adaptive)
Weight generation scheme         WeightScheme... mBecke (2022)
Basis function cutoff            BFCut       ... 1.0000e-11
Integration weight cutoff        WCut        ... 1.0000e-14
Partially contracted basis set               ... on
Rotationally invariant grid construction     ... off
Angular grids for H and He will be reduced by one unit

Total number of grid points                  ...    19440
Total number of batches                      ...      163
Average number of points per batch           ...      119
Average number of grid points per atom       ...      748
UseSFitting                                  ... on

GRIDX 2
-------
General Integration Accuracy     IntAcc      ... 4.020
Radial Grid Type                 RadialGrid  ... OptM3 with GC (2021)
Angular Grid (max. ang.)         AngularGrid ... 2 (Lebedev-110)
Angular grid pruning method      GridPruning ... 4 (adaptive)
Weight generation scheme         WeightScheme... mBecke (2022)
Basis function cutoff            BFCut       ... 1.0000e-11
Integration weight cutoff        WCut        ... 1.0000e-14
Partially contracted basis set               ... on
Rotationally invariant grid construction     ... off
Angular grids for H and He will be reduced by one unit

Total number of grid points                  ...    45831
Total number of batches                      ...      372
Average number of points per batch           ...      123
Average number of grid points per atom       ...     1763
UseSFitting                                  ... on

GRIDX 3
-------
General Integration Accuracy     IntAcc      ... 4.338
Radial Grid Type                 RadialGrid  ... OptM3 with GC (2021)
Angular Grid (max. ang.)         AngularGrid ... 3 (Lebedev-194)
Angular grid pruning method      GridPruning ... 4 (adaptive)
Weight generation scheme         WeightScheme... mBecke (2022)
Basis function cutoff            BFCut       ... 1.0000e-11
Integration weight cutoff        WCut        ... 1.0000e-14
Partially contracted basis set               ... on
Rotationally invariant grid construction     ... off
Angular grids for H and He will be reduced by one unit

Total number of grid points                  ...   101454
Total number of batches                      ...      802
Average number of points per batch           ...      126
Average number of grid points per atom       ...     3902
UseSFitting                                  ... on
Initializing property integral containers    ... done (  0.0 sec)

SHARK setup successfully completed in   3.6 seconds

Maximum memory used throughout the entire STARTUP-calculation: 60.8 MB


           ************************************************************
           *        Program running with 20 parallel MPI-processes    *
           *              working on a common directory               *
           ************************************************************
-------------------------------------------------------------------------------
                                 ORCA GUESS
                   Start orbitals & Density for SCF / CASSCF
-------------------------------------------------------------------------------

------------
SCF SETTINGS
------------
Hamiltonian:
 Density Functional     Method          .... DFT(GTOs)
 Exchange Functional    Exchange        .... TPSS
 Correlation Functional Correlation     .... TPSS
 LDA part of GGA corr.  LDAOpt          .... PW91-LDA
 Gradients option       PostSCFGGA      .... off
 Hybrid DFT is turned on
   Fraction HF Exchange ScalHFX         ....  0.100000
   Scaling of DF-GGA-X  ScalDFX         ....  0.900000
   Scaling of DF-GGA-C  ScalDFC         ....  1.000000
   Scaling of DF-LDA-C  ScalLDAC        ....  1.000000
   Perturbative correction              ....  0.000000
   NL short-range parameter             ....  5.200000
 RI-approximation to the Coulomb term is turned on
   Number of AuxJ basis functions       .... 1236
   RIJ-COSX (HFX calculated with COS-X)).... on


General Settings:
 Integral files         IntName         .... rf_mecn_freq_TP_P_A
 Hartree-Fock type      HFTyp           .... RHF
 Total Charge           Charge          ....    0
 Multiplicity           Mult            ....    1
 Number of Electrons    NEL             ....  200
 Basis Dimension        Dim             ....  781
 Nuclear Repulsion      ENuc            ....   2896.6088380913 Eh

Convergence Acceleration:
 AO-DIIS                CNVDIIS         .... on
   Start iteration      DIISMaxIt       ....     0
   Startup error        DIISStart       ....  0.200000
   # of expansion vecs  DIISMaxEq       ....     5
   Bias factor          DIISBfac        ....   1.050
   Max. coefficient     DIISMaxC        ....  10.000
 MO-DIIS                CNVKDIIS        .... off
 Trust-Rad. Augm. Hess. CNVTRAH         .... auto
   Auto Start mean grad. ratio tolernc. ....  1.125000
   Auto Start start iteration           ....    50
   Auto Start num. interpolation iter.  ....    10
   Max. Number of Micro iterations      ....    24
   Max. Number of Macro iterations      .... Maxiter - #DIIS iter
   Number of Davidson start vectors     ....     2
   Converg. threshold    (grad. norm)   ....   1.000e-05
   Grad. Scal. Fac. for Micro threshold ....   0.100
   Minimum threshold for Micro iter.    ....   1.000e-02
   NR start threshold (gradient norm)   ....   1.000e-04
   Initial trust radius                 ....   0.400
   Minimum AH scaling param. (alpha)    ....   1.000
   Maximum AH scaling param. (alpha)    .... 1000.000
   Quad. conv. algorithm                .... NR
   White noise on init. David. guess    .... on
   Maximum white noise                  ....   0.010
   Pseudo random numbers                .... off
   Inactive MOs                         .... canonical
   Orbital update algorithm             .... Taylor
   Preconditioner                       .... Diag
   Full preconditioner red. dimension   ....   250
 SOSCF                  CNVSOSCF        .... on
   Start iteration      SOSCFMaxIt      ....   150
   Startup grad/error   SOSCFStart      ....  0.001000
   Hessian update       SOSCFHessUp     .... L-BFGS
 Level Shifting         CNVShift        .... on
   Level shift para.    LevelShift      ....    0.2500
   Turn off err/grad.   ShiftErr        ....    0.0000
 Zerner damping         CNVZerner       .... off
 Static damping         CNVDamp         .... on
   Fraction old density DampFac         ....    0.8500
   Max. Damping (<1)    DampMax         ....    0.9800
   Min. Damping (>=0)   DampMin         ....    0.0000
   Turn off err/grad.   DampErr         ....    0.0300

SCF Procedure:
 Maximum # iterations   MaxIter         ....  1500
 SCF integral mode      SCFMode         .... Direct
   Integral package                     .... SHARK and LIBINT hybrid scheme
 Reset frequency        DirectResetFreq ....    20
 Integral Threshold     Thresh          ....  2.500e-11 Eh
 Primitive CutOff       TCut            ....  2.500e-12 Eh

Convergence Tolerance:
 Convergence Check Mode ConvCheckMode   .... Total+1el-Energy
 Convergence forced     ConvForced      .... 0
 Energy Change          TolE            ....  1.000e-08 Eh
 1-El. energy change                    ....  1.000e-05 Eh
 Orbital Gradient       TolG            ....  1.000e-05
 Orbital Rotation angle TolX            ....  1.000e-05
 DIIS Error             TolErr          ....  5.000e-07

------------------------------
INITIAL GUESS: MODEL POTENTIAL
------------------------------
Loading Hartree-Fock densities                     ... done
Calculating cut-offs                               ... done
Initializing the effective Hamiltonian             ... done
Setting up the integral package (SHARK)            ... done
Starting the Coulomb interaction                   ... done (   0.2 sec)
Making the grid                                    ... done (   0.5 sec)
Mapping shells                                     ... done
Starting the XC term evaluation                    ... done (   0.1 sec)
  promolecular density results
     # of electrons  =    199.996719749
     EX              =   -207.576973671
     EC              =     -7.038281710
     EX+EC           =   -214.615255381
Transforming the Hamiltonian                       ... done (   0.1 sec)
Diagonalizing the Hamiltonian                      ... done (   0.1 sec)
Back transforming the eigenvectors                 ... done (   0.0 sec)
Now organizing SCF variables                       ... done
                      ------------------
                      INITIAL GUESS DONE (   1.2 sec)
                      ------------------
             **** ENERGY FILE WAS UPDATED (rf_mecn_freq_TP_P_A.en.tmp) ****
Finished Guess after   1.9 sec
Maximum memory used throughout the entire GUESS-calculation: 49.5 MB


           ************************************************************
           *        Program running with 20 parallel MPI-processes    *
           *              working on a common directory               *
           ************************************************************

-------------------------------------------------------------------------------------------
                                      ORCA LEAN-SCF
                              memory conserving SCF solver
-------------------------------------------------------------------------------------------

--------------------
CPCM SOLVATION MODEL
--------------------
CPCM parameters:
  Epsilon                                         ...      35.6880
  Refrac                                          ...       1.3442
  Rsolv                                           ...       1.3000
  Surface type                                    ... GAUSSIAN VDW
  Discretization scheme                           ... Constant charge density
    Threshold for H atoms                         ...       5.0000 (charges/Ang^2)
    Threshold for non-H atoms                     ...       5.0000 (charges/Ang^2)
  Epsilon function type                           ...         CPCM
Solvent:                                          ... ACETONITRILE
SMD-CDS solvent descriptors:
  Soln                                            ...       1.3442
  Soln25                                          ...       1.3416
  Sola                                            ...       0.0700
  Solb                                            ...       0.3200
  Solg                                            ...      41.2500
  Solc                                            ...       0.0000
  Solh                                            ...       0.0000
Radii:
  Scheme                                          ... Element-dependent radii
  Radius for C  used is    3.4960 Bohr (=   1.8500 Ang.)
  Radius for O  used is    4.0969 Bohr (=   2.1680 Ang.)
  Radius for F  used is    3.2692 Bohr (=   1.7300 Ang.)
  Radius for H  used is    2.2677 Bohr (=   1.2000 Ang.)
Calculating surface                               ...        done! (  0.0s)
Cavity surface points                             ...         2175
Cavity Volume                                     ...    2171.9950
Cavity Surface-area                               ...    1118.6412
Calculating surface distance matrix               ...        done! (  0.0s)
Performing Cholesky decomposition & store         ...        done! (  0.1s)
Overall time for CPCM initialization              ...                 0.2s

----------------------------------------D-I-I-S--------------------------------------------
Iteration    Energy (Eh)           Delta-E    RMSDP     MaxDP     DIISErr   Damp  Time(sec)
-------------------------------------------------------------------------------------------
               ***  Starting incremental Fock matrix formation  ***
    1    -1953.9214263561279949     0.00e+00  3.63e-04  2.64e-02  2.70e-01  0.850   6.9
    2    -1954.0484345989252688    -1.27e-01  3.29e-04  2.25e-02  1.78e-01  0.850   4.0
                               ***Turning on AO-DIIS***
    3    -1954.1147343475358866    -6.63e-02  1.49e-04  7.62e-03  1.01e-01  0.850   3.8
    4    -1954.1540021866503594    -3.93e-02  9.59e-05  6.29e-03  7.60e-02  0.850   3.6
    5    -1954.1818088048730715    -2.78e-02  7.76e-05  6.69e-03  6.50e-02  0.850   3.6
    6    -1954.2039039539758960    -2.21e-02  6.85e-05  6.40e-03  5.68e-02  0.850   3.5
    7    -1954.2223799884122855    -1.85e-02  6.24e-05  5.85e-03  4.85e-02  0.850   3.6
    8    -1954.2380559621551583    -1.57e-02  5.43e-05  5.11e-03  3.97e-02  0.850   3.4
    9    -1954.2511165187097504    -1.31e-02  4.56e-05  4.33e-03  3.28e-02  0.850   3.4
   10    -1954.2619299596190103    -1.08e-02  3.82e-05  3.66e-03  2.77e-02  0.850   3.3
   11    -1954.2709303352567076    -9.00e-03  2.16e-04  2.08e-02  2.34e-02  0.000   3.3
   12    -1954.3195005688357924    -4.86e-02  1.17e-05  1.20e-03  2.41e-03  0.000   3.6
                              *** Initializing SOSCF ***
---------------------------------------S-O-S-C-F--------------------------------------
Iteration    Energy (Eh)           Delta-E    RMSDP     MaxDP     MaxGrad    Time(sec)
--------------------------------------------------------------------------------------
   13    -1954.3195192582861637    -1.87e-05  4.40e-06  4.41e-04  7.87e-04     3.3
               *** Restarting incremental Fock matrix formation ***
   14    -1954.3195280980535244    -8.84e-06  4.49e-06  4.52e-04  1.58e-04     6.8
   15    -1954.3195266671646095     1.43e-06  2.73e-06  2.71e-04  4.57e-04     3.9
   16    -1954.3195286085974658    -1.94e-06  1.19e-06  1.13e-04  3.50e-05     3.5
   17    -1954.3195285665397023     4.21e-08  6.19e-07  5.77e-05  4.61e-05     3.4
   18    -1954.3195286256432155    -5.91e-08  2.22e-07  2.64e-05  1.68e-06     3.2
                  *** Gradient check signals convergence ***

               *****************************************************
               *                     SUCCESS                       *
               *           SCF CONVERGED AFTER  18 CYCLES          *
               *****************************************************

Recomputing exchange energy using gridx3       ... done (    8.512 sec)
Old exchange energy                            :    -20.923857140 Eh
New exchange energy                            :    -20.923869603 Eh
Exchange energy change after final integration :     -0.000012462 Eh
Total energy after final integration           :  -1954.319541088 Eh

SMD CDS free energy correction energy :                 3.37341     Kcal/mol
Total Energy after SMD CDS correction =             -1954.314165222 Eh
             **** ENERGY FILE WAS UPDATED (rf_mecn_freq_TP_P_A.en.tmp) ****

----------------
TOTAL SCF ENERGY
----------------

Total Energy       :      -1954.31416522152267 Eh          -53179.59203 eV

Components:
Nuclear Repulsion  :       2896.60883809130974 Eh           78820.73365 eV
Electronic Energy  :      -4850.91713399848959 Eh         -132000.16597 eV
One Electron Energy:      -8482.88425901770643 Eh         -230831.01591 eV
Two Electron Energy:       3631.96712501921684 Eh           98830.84994 eV
CPCM Dielectric    :         -0.01123271846371 Eh              -0.30566 eV
SMD CDS (Gcds)     :          0.00537586633364 Eh               0.14628 eV

Virial components:
Potential Energy   :      -3902.00688741828981 Eh         -106179.00544 eV
Kinetic Energy     :       1947.69272219676691 Eh           52999.41341 eV
Virial Ratio       :          2.00339963432080

DFT components:
N(Alpha)           :       99.999962860406 electrons
N(Beta)            :       99.999962860406 electrons
N(Total)           :      199.999925720812 electrons
E(X)               :     -190.131884388064 Eh       
E(C)               :       -7.052280596458 Eh       
E(XC)              :     -197.184164984523 Eh       

CPCM Solvation Model Properties:
Surface-charge          :         -0.00851477601160
Corrected charge        :         -0.00000000000000
Outlying charge corr.   :          0.00000395213850 Eh               0.00011 eV
Free-energy (cav+disp)  :          0.00537586633364 Eh               0.14628 eV

---------------
SCF CONVERGENCE
---------------

  Last Energy change         ...    5.9104e-08  Tolerance :   1.0000e-08
  Last MAX-Density change    ...    2.6416e-05  Tolerance :   1.0000e-07
  Last RMS-Density change    ...    2.2247e-07  Tolerance :   5.0000e-09
  Last DIIS Error            ...    7.8676e-04  Tolerance :   5.0000e-07
  Last Orbital Gradient      ...    1.6810e-06  Tolerance :   1.0000e-05
  Last Orbital Rotation      ...    2.9043e-06  Tolerance :   1.0000e-05


----------------
ORBITAL ENERGIES
----------------

  NO   OCC          E(Eh)            E(eV) 
   0   2.0000     -24.663156      -671.1186 
   1   2.0000     -24.663151      -671.1185 
   2   2.0000     -24.662949      -671.1130 
   3   2.0000     -24.662816      -671.1094 
   4   2.0000     -24.662725      -671.1069 
   5   2.0000     -24.662388      -671.0977 
   6   2.0000     -24.661827      -671.0824 
   7   2.0000     -24.661731      -671.0798 
   8   2.0000     -24.661478      -671.0729 
   9   2.0000     -24.660984      -671.0595 
  10   2.0000     -24.660957      -671.0587 
  11   2.0000     -24.660300      -671.0409 
  12   2.0000     -24.659891      -671.0297 
  13   2.0000     -24.651503      -670.8015 
  14   2.0000     -24.649742      -670.7536 
  15   2.0000     -19.133756      -520.6560 
  16   2.0000     -19.080138      -519.1970 
  17   2.0000     -10.397645      -282.9343 
  18   2.0000     -10.348538      -281.5980 
  19   2.0000     -10.348119      -281.5866 
  20   2.0000     -10.347130      -281.5597 
  21   2.0000     -10.346275      -281.5364 
  22   2.0000     -10.342762      -281.4409 
  23   2.0000     -10.333236      -281.1816 
  24   2.0000     -10.281298      -279.7684 
  25   2.0000      -1.324097       -36.0305 
  26   2.0000      -1.306589       -35.5541 
  27   2.0000      -1.294630       -35.2287 
  28   2.0000      -1.283630       -34.9294 
  29   2.0000      -1.280387       -34.8411 
  30   2.0000      -1.278532       -34.7906 
  31   2.0000      -1.271503       -34.5994 
  32   2.0000      -1.241056       -33.7708 
  33   2.0000      -1.236754       -33.6538 
  34   2.0000      -1.233086       -33.5540 
  35   2.0000      -1.231480       -33.5103 
  36   2.0000      -1.226892       -33.3854 
  37   2.0000      -1.224250       -33.3135 
  38   2.0000      -1.223547       -33.2944 
  39   2.0000      -1.215752       -33.0823 
  40   2.0000      -1.119722       -30.4692 
  41   2.0000      -1.035863       -28.1873 
  42   2.0000      -0.830497       -22.5990 
  43   2.0000      -0.814514       -22.1640 
  44   2.0000      -0.790326       -21.5059 
  45   2.0000      -0.756912       -20.5966 
  46   2.0000      -0.715478       -19.4691 
  47   2.0000      -0.678320       -18.4580 
  48   2.0000      -0.660079       -17.9617 
  49   2.0000      -0.643238       -17.5034 
  50   2.0000      -0.627262       -17.0687 
  51   2.0000      -0.624240       -16.9864 
  52   2.0000      -0.613951       -16.7064 
  53   2.0000      -0.609437       -16.5836 
  54   2.0000      -0.608095       -16.5471 
  55   2.0000      -0.602918       -16.4062 
  56   2.0000      -0.593025       -16.1370 
  57   2.0000      -0.588361       -16.0101 
  58   2.0000      -0.584677       -15.9099 
  59   2.0000      -0.579247       -15.7621 
  60   2.0000      -0.574793       -15.6409 
  61   2.0000      -0.567872       -15.4526 
  62   2.0000      -0.561042       -15.2667 
  63   2.0000      -0.556986       -15.1563 
  64   2.0000      -0.546838       -14.8802 
  65   2.0000      -0.498161       -13.5557 
  66   2.0000      -0.490916       -13.3585 
  67   2.0000      -0.488690       -13.2979 
  68   2.0000      -0.483323       -13.1519 
  69   2.0000      -0.480706       -13.0807 
  70   2.0000      -0.476815       -12.9748 
  71   2.0000      -0.473593       -12.8871 
  72   2.0000      -0.470976       -12.8159 
  73   2.0000      -0.466771       -12.7015 
  74   2.0000      -0.462095       -12.5742 
  75   2.0000      -0.461500       -12.5580 
  76   2.0000      -0.459107       -12.4929 
  77   2.0000      -0.454916       -12.3789 
  78   2.0000      -0.452141       -12.3034 
  79   2.0000      -0.448139       -12.1945 
  80   2.0000      -0.444277       -12.0894 
  81   2.0000      -0.440923       -11.9981 
  82   2.0000      -0.435999       -11.8641 
  83   2.0000      -0.433309       -11.7909 
  84   2.0000      -0.429207       -11.6793 
  85   2.0000      -0.426715       -11.6115 
  86   2.0000      -0.425688       -11.5836 
  87   2.0000      -0.423515       -11.5244 
  88   2.0000      -0.421894       -11.4803 
  89   2.0000      -0.418838       -11.3972 
  90   2.0000      -0.417717       -11.3667 
  91   2.0000      -0.414582       -11.2814 
  92   2.0000      -0.413763       -11.2591 
  93   2.0000      -0.410980       -11.1833 
  94   2.0000      -0.404211       -10.9991 
  95   2.0000      -0.387232       -10.5371 
  96   2.0000      -0.360194        -9.8014 
  97   2.0000      -0.340545        -9.2667 
  98   2.0000      -0.330321        -8.9885 
  99   2.0000      -0.296312        -8.0631 
 100   0.0000      -0.066974        -1.8224 
 101   0.0000      -0.021549        -0.5864 
 102   0.0000      -0.009006        -0.2451 
 103   0.0000       0.015795         0.4298 
 104   0.0000       0.029731         0.8090 
 105   0.0000       0.041624         1.1326 
 106   0.0000       0.067470         1.8360 
 107   0.0000       0.077877         2.1191 
 108   0.0000       0.095122         2.5884 
 109   0.0000       0.102865         2.7991 
 110   0.0000       0.113817         3.0971 
*Only the first 10 virtual orbitals were printed.

                    ********************************
                    * MULLIKEN POPULATION ANALYSIS *
                    ********************************

-----------------------
MULLIKEN ATOMIC CHARGES
-----------------------
   0 C :    0.223217
   1 O :   -0.338163
   2 O :   -0.287473
   3 C :    0.377112
   4 C :    0.266407
   5 C :    0.290387
   6 C :    0.297363
   7 C :    0.272464
   8 C :    0.296081
   9 C :    0.408602
  10 F :   -0.158963
  11 F :   -0.154214
  12 F :   -0.151895
  13 F :   -0.152832
  14 F :   -0.148318
  15 F :   -0.146525
  16 F :   -0.146556
  17 F :   -0.146717
  18 F :   -0.147617
  19 F :   -0.146549
  20 F :   -0.146190
  21 F :   -0.142580
  22 F :   -0.135229
  23 F :   -0.132025
  24 F :   -0.132533
  25 H :    0.382746
Sum of atomic charges:    0.0000000

--------------------------------
MULLIKEN REDUCED ORBITAL CHARGES
--------------------------------
  0 C s       :     3.092988  s :     3.092988
      pz      :     0.762963  p :     2.389994
      px      :     0.859819
      py      :     0.767211
      dz2     :     0.054156  d :     0.269704
      dxz     :     0.034220
      dyz     :     0.062853
      dx2y2   :     0.064048
      dxy     :     0.054427
      f0      :     0.003101  f :     0.024097
      f+1     :     0.002445
      f-1     :     0.003721
      f+2     :     0.003956
      f-2     :     0.003640
      f+3     :     0.002837
      f-3     :     0.004398

  1 O s       :     3.773235  s :     3.773235
      pz      :     1.449063  p :     4.531608
      px      :     1.484375
      py      :     1.598170
      dz2     :     0.005620  d :     0.031497
      dxz     :     0.004609
      dyz     :     0.008737
      dx2y2   :     0.005577
      dxy     :     0.006954
      f0      :     0.000324  f :     0.001823
      f+1     :     0.000185
      f-1     :     0.000297
      f+2     :     0.000369
      f-2     :     0.000405
      f+3     :     0.000030
      f-3     :     0.000213

  2 O s       :     3.805161  s :     3.805161
      pz      :     1.556666  p :     4.449994
      px      :     1.551144
      py      :     1.342184
      dz2     :     0.003989  d :     0.030345
      dxz     :     0.003303
      dyz     :     0.006849
      dx2y2   :     0.008860
      dxy     :     0.007344
      f0      :     0.000170  f :     0.001974
      f+1     :     0.000118
      f-1     :     0.000333
      f+2     :     0.000209
      f-2     :     0.000319
      f+3     :     0.000317
      f-3     :     0.000509

  3 C s       :     3.037371  s :     3.037371
      pz      :     0.672453  p :     2.263562
      px      :     0.949866
      py      :     0.641243
      dz2     :     0.048681  d :     0.293873
      dxz     :     0.059880
      dyz     :     0.080157
      dx2y2   :     0.043043
      dxy     :     0.062113
      f0      :     0.005444  f :     0.028081
      f+1     :     0.004874
      f-1     :     0.005132
      f+2     :     0.003662
      f-2     :     0.001602
      f+3     :     0.004853
      f-3     :     0.002514

  4 C s       :     3.146601  s :     3.146601
      pz      :     0.639372  p :     2.255883
      px      :     0.940876
      py      :     0.675635
      dz2     :     0.055906  d :     0.302636
      dxz     :     0.062556
      dyz     :     0.079100
      dx2y2   :     0.040968
      dxy     :     0.064106
      f0      :     0.004163  f :     0.028473
      f+1     :     0.005227
      f-1     :     0.007498
      f+2     :     0.002738
      f-2     :     0.001796
      f+3     :     0.004631
      f-3     :     0.002421

  5 C s       :     3.129729  s :     3.129729
      pz      :     0.606789  p :     2.246749
      px      :     0.926266
      py      :     0.713694
      dz2     :     0.071358  d :     0.304621
      dxz     :     0.065780
      dyz     :     0.068192
      dx2y2   :     0.037672
      dxy     :     0.061620
      f0      :     0.004041  f :     0.028514
      f+1     :     0.004927
      f-1     :     0.007753
      f+2     :     0.002766
      f-2     :     0.003466
      f+3     :     0.003154
      f-3     :     0.002408

  6 C s       :     3.126662  s :     3.126662
      pz      :     0.591969  p :     2.242079
      px      :     0.923599
      py      :     0.726511
      dz2     :     0.082648  d :     0.305357
      dxz     :     0.064763
      dyz     :     0.058898
      dx2y2   :     0.035863
      dxy     :     0.063185
      f0      :     0.005935  f :     0.028539
      f+1     :     0.004151
      f-1     :     0.004998
      f+2     :     0.003955
      f-2     :     0.005087
      f+3     :     0.002349
      f-3     :     0.002063

  7 C s       :     3.133414  s :     3.133414
      pz      :     0.592144  p :     2.260993
      px      :     0.938096
      py      :     0.730753
      dz2     :     0.082697  d :     0.304603
      dxz     :     0.064925
      dyz     :     0.058568
      dx2y2   :     0.035742
      dxy     :     0.062671
      f0      :     0.005991  f :     0.028526
      f+1     :     0.004160
      f-1     :     0.004909
      f+2     :     0.003974
      f-2     :     0.005150
      f+3     :     0.002311
      f-3     :     0.002032

  8 C s       :     3.103203  s :     3.103203
      pz      :     0.610766  p :     2.273987
      px      :     0.939708
      py      :     0.723514
      dz2     :     0.069826  d :     0.298167
      dxz     :     0.064157
      dyz     :     0.067372
      dx2y2   :     0.035994
      dxy     :     0.060818
      f0      :     0.004138  f :     0.028562
      f+1     :     0.004854
      f-1     :     0.007683
      f+2     :     0.002844
      f-2     :     0.003503
      f+3     :     0.003104
      f-3     :     0.002436

  9 C s       :     3.020193  s :     3.020193
      pz      :     0.655467  p :     2.167258
      px      :     0.835526
      py      :     0.676264
      dz2     :     0.070976  d :     0.363491
      dxz     :     0.072241
      dyz     :     0.086155
      dx2y2   :     0.068580
      dxy     :     0.065539
      f0      :     0.004245  f :     0.040456
      f+1     :     0.007192
      f-1     :     0.010351
      f+2     :     0.003462
      f-2     :     0.004604
      f+3     :     0.006567
      f-3     :     0.004034

 10 F s       :     3.918442  s :     3.918442
      pz      :     1.884903  p :     5.224169
      px      :     1.900211
      py      :     1.439055
      dz2     :     0.002188  d :     0.015653
      dxz     :     0.000161
      dyz     :     0.003252
      dx2y2   :     0.006176
      dxy     :     0.003876
      f0      :     0.000058  f :     0.000699
      f+1     :     0.000013
      f-1     :     0.000140
      f+2     :     0.000100
      f-2     :     0.000008
      f+3     :     0.000157
      f-3     :     0.000224

 11 F s       :     3.915821  s :     3.915821
      pz      :     1.453769  p :     5.221825
      px      :     1.902880
      py      :     1.865176
      dz2     :     0.007739  d :     0.015847
      dxz     :     0.003661
      dyz     :     0.003796
      dx2y2   :     0.000344
      dxy     :     0.000308
      f0      :     0.000313  f :     0.000720
      f+1     :     0.000153
      f-1     :     0.000201
      f+2     :     0.000028
      f-2     :     0.000021
      f+3     :     0.000002
      f-3     :     0.000002

 12 F s       :     3.919188  s :     3.919188
      pz      :     1.854484  p :     5.216042
      px      :     1.901295
      py      :     1.460263
      dz2     :     0.002113  d :     0.015959
      dxz     :     0.000340
      dyz     :     0.004102
      dx2y2   :     0.005760
      dxy     :     0.003644
      f0      :     0.000073  f :     0.000706
      f+1     :     0.000007
      f-1     :     0.000125
      f+2     :     0.000146
      f-2     :     0.000027
      f+3     :     0.000135
      f-3     :     0.000193

 13 F s       :     3.919200  s :     3.919200
      pz      :     1.434341  p :     5.216983
      px      :     1.897603
      py      :     1.885039
      dz2     :     0.008383  d :     0.015943
      dxz     :     0.003934
      dyz     :     0.003261
      dx2y2   :     0.000214
      dxy     :     0.000150
      f0      :     0.000363  f :     0.000706
      f+1     :     0.000171
      f-1     :     0.000153
      f+2     :     0.000010
      f-2     :     0.000007
      f+3     :     0.000001
      f-3     :     0.000001

 14 F s       :     3.918869  s :     3.918869
      pz      :     1.759230  p :     5.212676
      px      :     1.893885
      py      :     1.559561
      dz2     :     0.002183  d :     0.016061
      dxz     :     0.001170
      dyz     :     0.005750
      dx2y2   :     0.003923
      dxy     :     0.003035
      f0      :     0.000081  f :     0.000711
      f+1     :     0.000007
      f-1     :     0.000145
      f+2     :     0.000199
      f-2     :     0.000092
      f+3     :     0.000089
      f-3     :     0.000100

 15 F s       :     3.918537  s :     3.918537
      pz      :     1.457662  p :     5.211141
      px      :     1.899645
      py      :     1.853833
      dz2     :     0.007667  d :     0.016131
      dxz     :     0.003600
      dyz     :     0.004073
      dx2y2   :     0.000356
      dxy     :     0.000435
      f0      :     0.000313  f :     0.000716
      f+1     :     0.000139
      f-1     :     0.000204
      f+2     :     0.000024
      f-2     :     0.000033
      f+3     :     0.000002
      f-3     :     0.000001

 16 F s       :     3.918877  s :     3.918877
      pz      :     1.650543  p :     5.210861
      px      :     1.899546
      py      :     1.660772
      dz2     :     0.003241  d :     0.016105
      dxz     :     0.001954
      dyz     :     0.006467
      dx2y2   :     0.002375
      dxy     :     0.002068
      f0      :     0.000087  f :     0.000713
      f+1     :     0.000025
      f-1     :     0.000233
      f+2     :     0.000180
      f-2     :     0.000106
      f+3     :     0.000040
      f-3     :     0.000041

 17 F s       :     3.918822  s :     3.918822
      pz      :     1.534715  p :     5.211082
      px      :     1.894361
      py      :     1.782006
      dz2     :     0.005504  d :     0.016100
      dxz     :     0.003060
      dyz     :     0.005423
      dx2y2   :     0.000986
      dxy     :     0.001126
      f0      :     0.000173  f :     0.000713
      f+1     :     0.000090
      f-1     :     0.000261
      f+2     :     0.000085
      f-2     :     0.000085
      f+3     :     0.000010
      f-3     :     0.000009

 18 F s       :     3.919244  s :     3.919244
      pz      :     1.646277  p :     5.211563
      px      :     1.900339
      py      :     1.664947
      dz2     :     0.003290  d :     0.016098
      dxz     :     0.001989
      dyz     :     0.006469
      dx2y2   :     0.002319
      dxy     :     0.002031
      f0      :     0.000088  f :     0.000712
      f+1     :     0.000026
      f-1     :     0.000236
      f+2     :     0.000178
      f-2     :     0.000106
      f+3     :     0.000039
      f-3     :     0.000039

 19 F s       :     3.918779  s :     3.918779
      pz      :     1.537963  p :     5.210919
      px      :     1.895656
      py      :     1.777300
      dz2     :     0.005439  d :     0.016137
      dxz     :     0.003014
      dyz     :     0.005510
      dx2y2   :     0.001029
      dxy     :     0.001144
      f0      :     0.000169  f :     0.000714
      f+1     :     0.000086
      f-1     :     0.000265
      f+2     :     0.000089
      f-2     :     0.000086
      f+3     :     0.000011
      f-3     :     0.000010

 20 F s       :     3.918224  s :     3.918224
      pz      :     1.756929  p :     5.211253
      px      :     1.892310
      py      :     1.562014
      dz2     :     0.002178  d :     0.016003
      dxz     :     0.001152
      dyz     :     0.005774
      dx2y2   :     0.003891
      dxy     :     0.003008
      f0      :     0.000080  f :     0.000710
      f+1     :     0.000007
      f-1     :     0.000146
      f+2     :     0.000200
      f-2     :     0.000091
      f+3     :     0.000088
      f-3     :     0.000098

 21 F s       :     3.915720  s :     3.915720
      pz      :     1.459273  p :     5.209974
      px      :     1.898065
      py      :     1.852637
      dz2     :     0.007659  d :     0.016161
      dxz     :     0.003593
      dyz     :     0.004103
      dx2y2   :     0.000356
      dxy     :     0.000450
      f0      :     0.000312  f :     0.000726
      f+1     :     0.000142
      f-1     :     0.000207
      f+2     :     0.000025
      f-2     :     0.000035
      f+3     :     0.000002
      f-3     :     0.000001

 22 F s       :     3.912889  s :     3.912889
      pz      :     1.807004  p :     5.205383
      px      :     1.883215
      py      :     1.515164
      dz2     :     0.002133  d :     0.016197
      dxz     :     0.000722
      dyz     :     0.005206
      dx2y2   :     0.004916
      dxy     :     0.003220
      f0      :     0.000087  f :     0.000760
      f+1     :     0.000005
      f-1     :     0.000133
      f+2     :     0.000196
      f-2     :     0.000064
      f+3     :     0.000118
      f-3     :     0.000157

 23 F s       :     3.911330  s :     3.911330
      pz      :     1.842917  p :     5.203682
      px      :     1.629245
      py      :     1.731520
      dz2     :     0.002166  d :     0.016244
      dxz     :     0.002932
      dyz     :     0.002072
      dx2y2   :     0.003481
      dxy     :     0.005593
      f0      :     0.000082  f :     0.000770
      f+1     :     0.000085
      f-1     :     0.000057
      f+2     :     0.000044
      f-2     :     0.000167
      f+3     :     0.000152
      f-3     :     0.000183

 24 F s       :     3.911536  s :     3.911536
      pz      :     1.439357  p :     5.203861
      px      :     1.885114
      py      :     1.879391
      dz2     :     0.008746  d :     0.016362
      dxz     :     0.003712
      dyz     :     0.003493
      dx2y2   :     0.000187
      dxy     :     0.000223
      f0      :     0.000398  f :     0.000774
      f+1     :     0.000171
      f-1     :     0.000178
      f+2     :     0.000011
      f-2     :     0.000014
      f+3     :     0.000001
      f-3     :     0.000001

 25 H s       :     0.575547  s :     0.575547
      pz      :     0.012545  p :     0.041706
      px      :     0.017744
      py      :     0.011418



                     *******************************
                     * LOEWDIN POPULATION ANALYSIS *
                     *******************************

----------------------
LOEWDIN ATOMIC CHARGES
----------------------
   0 C :   -0.491130
   1 O :    0.157270
   2 O :    0.136566
   3 C :   -0.452538
   4 C :   -0.455598
   5 C :   -0.459154
   6 C :   -0.459462
   7 C :   -0.460792
   8 C :   -0.466604
   9 C :   -0.668208
  10 F :    0.210660
  11 F :    0.217023
  12 F :    0.226171
  13 F :    0.224090
  14 F :    0.226985
  15 F :    0.228890
  16 F :    0.228826
  17 F :    0.228780
  18 F :    0.228250
  19 F :    0.228767
  20 F :    0.225693
  21 F :    0.227598
  22 F :    0.226982
  23 F :    0.227515
  24 F :    0.229329
  25 H :    0.234091

-------------------------------
LOEWDIN REDUCED ORBITAL CHARGES
-------------------------------
  0 C s       :     2.763018  s :     2.763018
      pz      :     0.841218  p :     2.651403
      px      :     0.895823
      py      :     0.914363
      dz2     :     0.177189  d :     0.929584
      dxz     :     0.120761
      dyz     :     0.233260
      dx2y2   :     0.199778
      dxy     :     0.198595
      f0      :     0.020267  f :     0.147125
      f+1     :     0.016947
      f-1     :     0.020857
      f+2     :     0.025635
      f-2     :     0.018268
      f+3     :     0.018013
      f-3     :     0.027138

  1 O s       :     3.326464  s :     3.326464
      pz      :     1.442479  p :     4.440654
      px      :     1.416613
      py      :     1.581562
      dz2     :     0.011967  d :     0.070448
      dxz     :     0.014877
      dyz     :     0.020708
      dx2y2   :     0.011947
      dxy     :     0.010951
      f0      :     0.000760  f :     0.005164
      f+1     :     0.000451
      f-1     :     0.001041
      f+2     :     0.000844
      f-2     :     0.001108
      f+3     :     0.000207
      f-3     :     0.000753

  2 O s       :     3.405162  s :     3.405162
      pz      :     1.465718  p :     4.383470
      px      :     1.480734
      py      :     1.437018
      dz2     :     0.009430  d :     0.068398
      dxz     :     0.005616
      dyz     :     0.016272
      dx2y2   :     0.016625
      dxy     :     0.020456
      f0      :     0.000622  f :     0.006403
      f+1     :     0.000318
      f-1     :     0.000990
      f+2     :     0.000767
      f-2     :     0.001034
      f+3     :     0.001431
      f-3     :     0.001241

  3 C s       :     2.760908  s :     2.760908
      pz      :     0.802500  p :     2.595823
      px      :     1.013896
      py      :     0.779427
      dz2     :     0.207444  d :     0.918042
      dxz     :     0.168649
      dyz     :     0.199298
      dx2y2   :     0.177703
      dxy     :     0.164949
      f0      :     0.036831  f :     0.177764
      f+1     :     0.025643
      f-1     :     0.035775
      f+2     :     0.020433
      f-2     :     0.012322
      f+3     :     0.026200
      f-3     :     0.020561

  4 C s       :     2.763891  s :     2.763891
      pz      :     0.779199  p :     2.590457
      px      :     1.005898
      py      :     0.805360
      dz2     :     0.228428  d :     0.923570
      dxz     :     0.157133
      dyz     :     0.198962
      dx2y2   :     0.166638
      dxy     :     0.172410
      f0      :     0.034543  f :     0.177680
      f+1     :     0.028228
      f-1     :     0.040264
      f+2     :     0.019918
      f-2     :     0.012139
      f+3     :     0.024128
      f-3     :     0.018459

  5 C s       :     2.762598  s :     2.762598
      pz      :     0.752043  p :     2.593190
      px      :     1.002491
      py      :     0.838655
      dz2     :     0.241712  d :     0.924930
      dxz     :     0.147559
      dyz     :     0.217453
      dx2y2   :     0.131322
      dxy     :     0.186884
      f0      :     0.031658  f :     0.178435
      f+1     :     0.027692
      f-1     :     0.043231
      f+2     :     0.024319
      f-2     :     0.020197
      f+3     :     0.016597
      f-3     :     0.014742

  6 C s       :     2.762598  s :     2.762598
      pz      :     0.738665  p :     2.593735
      px      :     1.003114
      py      :     0.851955
      dz2     :     0.242249  d :     0.924742
      dxz     :     0.139829
      dyz     :     0.234571
      dx2y2   :     0.114562
      dxy     :     0.193531
      f0      :     0.032521  f :     0.178387
      f+1     :     0.025032
      f-1     :     0.039364
      f+2     :     0.030359
      f-2     :     0.027267
      f+3     :     0.012258
      f-3     :     0.011587

  7 C s       :     2.762701  s :     2.762701
      pz      :     0.737581  p :     2.594206
      px      :     1.004992
      py      :     0.851634
      dz2     :     0.242720  d :     0.925478
      dxz     :     0.139163
      dyz     :     0.235131
      dx2y2   :     0.114410
      dxy     :     0.194054
      f0      :     0.032549  f :     0.178407
      f+1     :     0.025047
      f-1     :     0.039292
      f+2     :     0.030531
      f-2     :     0.027510
      f+3     :     0.012119
      f-3     :     0.011359

  8 C s       :     2.766648  s :     2.766648
      pz      :     0.752791  p :     2.598128
      px      :     1.008223
      py      :     0.837114
      dz2     :     0.240843  d :     0.923439
      dxz     :     0.148139
      dyz     :     0.217455
      dx2y2   :     0.127337
      dxy     :     0.189667
      f0      :     0.031786  f :     0.178389
      f+1     :     0.027648
      f-1     :     0.043040
      f+2     :     0.024810
      f-2     :     0.020163
      f+3     :     0.016149
      f-3     :     0.014793

  9 C s       :     2.761217  s :     2.761217
      pz      :     0.789256  p :     2.505814
      px      :     0.912084
      py      :     0.804473
      dz2     :     0.274525  d :     1.145623
      dxz     :     0.186824
      dyz     :     0.240920
      dx2y2   :     0.217021
      dxy     :     0.226333
      f0      :     0.037932  f :     0.255554
      f+1     :     0.039511
      f-1     :     0.053272
      f+2     :     0.028402
      f-2     :     0.031861
      f+3     :     0.035263
      f-3     :     0.029313

 10 F s       :     3.602481  s :     3.602481
      pz      :     1.812747  p :     5.154813
      px      :     1.823747
      py      :     1.518319
      dz2     :     0.004236  d :     0.030535
      dxz     :     0.000229
      dyz     :     0.005499
      dx2y2   :     0.012345
      dxy     :     0.008225
      f0      :     0.000124  f :     0.001512
      f+1     :     0.000032
      f-1     :     0.000276
      f+2     :     0.000213
      f-2     :     0.000015
      f+3     :     0.000422
      f-3     :     0.000431

 11 F s       :     3.599036  s :     3.599036
      pz      :     1.525877  p :     5.151593
      px      :     1.825594
      py      :     1.800122
      dz2     :     0.015158  d :     0.030805
      dxz     :     0.007885
      dyz     :     0.006565
      dx2y2   :     0.000609
      dxy     :     0.000588
      f0      :     0.000601  f :     0.001542
      f+1     :     0.000423
      f-1     :     0.000392
      f+2     :     0.000072
      f-2     :     0.000048
      f+3     :     0.000002
      f-3     :     0.000003

 12 F s       :     3.598082  s :     3.598082
      pz      :     1.793270  p :     5.143221
      px      :     1.817788
      py      :     1.532163
      dz2     :     0.004066  d :     0.030991
      dxz     :     0.000647
      dyz     :     0.007197
      dx2y2   :     0.011441
      dxy     :     0.007640
      f0      :     0.000133  f :     0.001534
      f+1     :     0.000018
      f-1     :     0.000285
      f+2     :     0.000288
      f-2     :     0.000064
      f+3     :     0.000379
      f-3     :     0.000367

 13 F s       :     3.598772  s :     3.598772
      pz      :     1.517547  p :     5.144675
      px      :     1.816392
      py      :     1.810737
      dz2     :     0.016727  d :     0.030932
      dxz     :     0.008221
      dyz     :     0.005483
      dx2y2   :     0.000294
      dxy     :     0.000207
      f0      :     0.000699  f :     0.001531
      f+1     :     0.000457
      f-1     :     0.000338
      f+2     :     0.000022
      f-2     :     0.000012
      f+3     :     0.000002
      f-3     :     0.000002

 14 F s       :     3.597622  s :     3.597622
      pz      :     1.733707  p :     5.142696
      px      :     1.814804
      py      :     1.594184
      dz2     :     0.003873  d :     0.031153
      dxz     :     0.002459
      dyz     :     0.010978
      dx2y2   :     0.007676
      dxy     :     0.006167
      f0      :     0.000160  f :     0.001544
      f+1     :     0.000013
      f-1     :     0.000319
      f+2     :     0.000384
      f-2     :     0.000230
      f+3     :     0.000238
      f-3     :     0.000200

 15 F s       :     3.596898  s :     3.596898
      pz      :     1.535963  p :     5.141398
      px      :     1.818793
      py      :     1.786641
      dz2     :     0.014923  d :     0.031262
      dxz     :     0.007577
      dyz     :     0.007547
      dx2y2   :     0.000447
      dxy     :     0.000768
      f0      :     0.000610  f :     0.001552
      f+1     :     0.000369
      f-1     :     0.000437
      f+2     :     0.000037
      f-2     :     0.000092
      f+3     :     0.000005
      f-3     :     0.000003

 16 F s       :     3.597135  s :     3.597135
      pz      :     1.663561  p :     5.141257
      px      :     1.818484
      py      :     1.659211
      dz2     :     0.005692  d :     0.031234
      dxz     :     0.004149
      dyz     :     0.012836
      dx2y2   :     0.004373
      dxy     :     0.004184
      f0      :     0.000210  f :     0.001548
      f+1     :     0.000061
      f-1     :     0.000446
      f+2     :     0.000351
      f-2     :     0.000287
      f+3     :     0.000116
      f-3     :     0.000076

 17 F s       :     3.597079  s :     3.597079
      pz      :     1.587862  p :     5.141353
      px      :     1.814921
      py      :     1.738570
      dz2     :     0.010277  d :     0.031239
      dxz     :     0.006463
      dyz     :     0.010707
      dx2y2   :     0.001646
      dxy     :     0.002146
      f0      :     0.000375  f :     0.001549
      f+1     :     0.000225
      f-1     :     0.000505
      f+2     :     0.000171
      f-2     :     0.000227
      f+3     :     0.000027
      f-3     :     0.000017

 18 F s       :     3.597550  s :     3.597550
      pz      :     1.661080  p :     5.141464
      px      :     1.818529
      py      :     1.661855
      dz2     :     0.005797  d :     0.031189
      dxz     :     0.004201
      dyz     :     0.012831
      dx2y2   :     0.004249
      dxy     :     0.004110
      f0      :     0.000214  f :     0.001546
      f+1     :     0.000064
      f-1     :     0.000451
      f+2     :     0.000346
      f-2     :     0.000287
      f+3     :     0.000111
      f-3     :     0.000073

 19 F s       :     3.597386  s :     3.597386
      pz      :     1.589790  p :     5.141035
      px      :     1.815894
      py      :     1.735350
      dz2     :     0.010127  d :     0.031262
      dxz     :     0.006368
      dyz     :     0.010871
      dx2y2   :     0.001707
      dxy     :     0.002190
      f0      :     0.000370  f :     0.001551
      f+1     :     0.000216
      f-1     :     0.000509
      f+2     :     0.000177
      f-2     :     0.000231
      f+3     :     0.000029
      f-3     :     0.000018

 20 F s       :     3.598978  s :     3.598978
      pz      :     1.732491  p :     5.142749
      px      :     1.815186
      py      :     1.595072
      dz2     :     0.003847  d :     0.031037
      dxz     :     0.002374
      dyz     :     0.011031
      dx2y2   :     0.007562
      dxy     :     0.006222
      f0      :     0.000160  f :     0.001544
      f+1     :     0.000013
      f-1     :     0.000321
      f+2     :     0.000385
      f-2     :     0.000231
      f+3     :     0.000241
      f-3     :     0.000194

 21 F s       :     3.597715  s :     3.597715
      pz      :     1.536411  p :     5.141781
      px      :     1.819668
      py      :     1.785702
      dz2     :     0.014832  d :     0.031335
      dxz     :     0.007586
      dyz     :     0.007629
      dx2y2   :     0.000494
      dxy     :     0.000794
      f0      :     0.000606  f :     0.001570
      f+1     :     0.000376
      f-1     :     0.000441
      f+2     :     0.000040
      f-2     :     0.000100
      f+3     :     0.000005
      f-3     :     0.000002

 22 F s       :     3.600744  s :     3.600744
[...]
 15:    129.36   0.000007    0.04  0.000017  ( 0.001515 -0.003374 -0.001944)
 16:    153.57   0.000134    0.68  0.000273  (-0.014826 -0.001175 -0.007186)
 17:    176.71   0.003110   15.72  0.005492  (-0.003938  0.005358  0.073809)
 18:    193.17   0.000129    0.65  0.000209  ( 0.012391 -0.007209  0.001794)
 19:    195.35   0.000121    0.61  0.000193  ( 0.010702 -0.005010  0.007309)
 20:    198.30   0.000393    1.99  0.000619  (-0.001674 -0.024588  0.003436)
 21:    221.01   0.000117    0.59  0.000165  ( 0.004356  0.004500 -0.011204)
 22:    233.51   0.000016    0.08  0.000021  ( 0.004130  0.001600  0.001344)
 23:    243.73   0.000172    0.87  0.000221  ( 0.013670  0.003940 -0.004291)
 24:    248.26   0.000016    0.08  0.000020  ( 0.000338  0.004325  0.000988)
 25:    253.76   0.000308    1.56  0.000379  (-0.016819 -0.008559  0.004763)
 26:    276.49   0.001356    6.85  0.001531  ( 0.036358 -0.014128 -0.003034)
 27:    298.03   0.000041    0.21  0.000043  ( 0.002386  0.000181 -0.006108)
 28:    303.36   0.000104    0.53  0.000107  ( 0.008244 -0.006084  0.001549)
 29:    326.10   0.000071    0.36  0.000068  ( 0.006889  0.000493  0.004457)
 30:    339.58   0.000303    1.53  0.000278  (-0.007485 -0.006927 -0.013195)
 31:    351.12   0.000138    0.70  0.000123  (-0.001491  0.003384  0.010438)
 32:    354.60   0.000026    0.13  0.000023  ( 0.003125  0.002894  0.002170)
 33:    359.98   0.000152    0.77  0.000132  ( 0.011426 -0.000642  0.000736)
 34:    366.63   0.000740    3.74  0.000630  (-0.022517 -0.010767 -0.002614)
 35:    368.45   0.000211    1.06  0.000178  ( 0.007941  0.010010  0.003894)
 36:    401.69   0.000290    1.46  0.000225  ( 0.004668 -0.014162  0.001654)
 37:    455.96   0.000753    3.81  0.000516  ( 0.015312 -0.004302 -0.016204)
 38:    502.83   0.015918   80.44  0.009879  (-0.095915  0.016157  0.020453)
 39:    508.05   0.000720    3.64  0.000442  ( 0.019625  0.005703 -0.004943)
 40:    520.87   0.001824    9.22  0.001093  (-0.010162  0.031388 -0.002105)
 41:    544.80   0.011426   57.74  0.006545  (-0.069667 -0.034730  0.022020)
 42:    552.38   0.003199   16.17  0.001807  ( 0.011293 -0.038848  0.013059)
 43:    571.39   0.005194   26.25  0.002837  (-0.039729  0.007042  0.034770)
 44:    579.90   0.014027   70.89  0.007548  ( 0.071389 -0.020436  0.045103)
 45:    589.56   0.002324   11.74  0.001230  ( 0.029680 -0.000521 -0.018673)
 46:    608.09   0.005369   27.13  0.002755  ( 0.019504  0.020944 -0.044003)
 47:    631.27   0.062992  318.33  0.031139  ( 0.163283 -0.059232  0.031137)
 48:    640.50   0.004470   22.59  0.002178  (-0.016521 -0.001480 -0.043620)
 49:    672.74   0.004035   20.39  0.001872  ( 0.025568  0.029525 -0.018614)
 50:    694.87   0.006515   32.92  0.002926  ( 0.046914  0.005811  0.026290)
 51:    713.92   0.001572    7.94  0.000687  ( 0.024131  0.001647 -0.010108)
 52:    743.36   0.001711    8.65  0.000718  (-0.014918 -0.008124  0.020733)
 53:    765.46   0.006752   34.12  0.002753  ( 0.026706  0.013594 -0.043068)
 54:    861.59   0.001809    9.14  0.000655  ( 0.020842 -0.014857 -0.000356)
 55:    994.91   0.014956   75.58  0.004691  ( 0.067373 -0.010280  0.006805)
 56:   1084.99   0.009869   49.87  0.002839  ( 0.026226  0.045531  0.008813)
 57:   1109.94   0.006881   34.77  0.001935  (-0.021729 -0.000021 -0.038242)
 58:   1120.63   0.043226  218.45  0.012037  (-0.003199  0.082896  0.071801)
 59:   1125.48   0.079239  400.44  0.021971  ( 0.038313  0.111818 -0.089441)
 60:   1131.62   0.000397    2.00  0.000109  (-0.006382 -0.005820  0.005897)
 61:   1136.81   0.067218  339.69  0.018452  (-0.001129  0.134464  0.019242)
 62:   1139.21   0.018800   95.01  0.005150  (-0.013182  0.069888  0.009578)
 63:   1143.33   0.042594  215.25  0.011626  (-0.006013 -0.082757 -0.068854)
 64:   1151.51   0.188621  953.21  0.051117  ( 0.001728 -0.030467 -0.224022)
 65:   1154.68   0.103928  525.21  0.028087  ( 0.030825 -0.163099 -0.023150)
 66:   1162.34   0.076110  384.63  0.020434  ( 0.009319  0.013197 -0.142032)
 67:   1174.19   0.041482  209.63  0.011025  ( 0.036874  0.014158 -0.097286)
 68:   1178.70   0.035823  181.04  0.009484  (-0.018121  0.025490 -0.092229)
 69:   1191.82   0.009653   48.78  0.002528  ( 0.028882 -0.036711 -0.018595)
 70:   1215.31   0.007709   38.96  0.001980  ( 0.033583 -0.003129 -0.029016)
 71:   1244.39   0.001607    8.12  0.000403  ( 0.007183  0.016299  0.009263)
 72:   1262.70   0.003523   17.80  0.000871  (-0.020476  0.017274  0.012370)
 73:   1282.68   0.010888   55.03  0.002649  ( 0.044860 -0.019555  0.015943)
 74:   1335.88   0.017610   89.00  0.004114  ( 0.063990  0.002701 -0.003436)
 75:   1391.98   0.015472   78.19  0.003469  (-0.042013  0.029391  0.028977)
 76:   1809.12   0.091229  461.03  0.015736  (-0.040497 -0.100477 -0.063252)
 77:   3604.36   0.048192  243.54  0.004172  (-0.050831 -0.004108  0.039646)

* The epsilon (eps) is given for a Dirac delta lineshape.
** The dipole moment derivative (T) already includes vibrational overlap.

The first frequency considered to be a vibration is 6
The total number of vibrations considered is 72


--------------------------
THERMOCHEMISTRY AT 298.15K
--------------------------

Temperature         ...   298.15 K
Pressure            ...     1.00 atm
Total Mass          ...   414.06 AMU
Quasi RRHO          ...     True
Cut-Off Frequency   ...     1.00 cm^-1

Throughout the following assumptions are being made:
  (1) The electronic state is orbitally nondegenerate
  (2) There are no thermally accessible electronically excited states
  (3) Hindered rotations indicated by low frequency modes are not
      treated as such but are treated as vibrations and this may
      cause some error
  (4) All equations used are the standard statistical mechanics
      equations for an ideal gas
  (5) All vibrations are strictly harmonic

freq.      21.77  E(vib)   ...       0.56 
freq.      29.59  E(vib)   ...       0.55 
freq.      31.68  E(vib)   ...       0.55 
freq.      44.01  E(vib)   ...       0.53 
freq.      52.81  E(vib)   ...       0.52 
freq.      58.96  E(vib)   ...       0.51 
freq.      62.10  E(vib)   ...       0.51 
freq.      70.03  E(vib)   ...       0.50 
freq.     112.39  E(vib)   ...       0.45 
freq.     129.36  E(vib)   ...       0.43 
freq.     153.57  E(vib)   ...       0.40 
freq.     176.71  E(vib)   ...       0.38 
freq.     193.17  E(vib)   ...       0.36 
freq.     195.35  E(vib)   ...       0.36 
freq.     198.30  E(vib)   ...       0.35 
freq.     221.01  E(vib)   ...       0.33 
freq.     233.51  E(vib)   ...       0.32 
freq.     243.73  E(vib)   ...       0.31 
freq.     248.26  E(vib)   ...       0.31 
freq.     253.76  E(vib)   ...       0.30 
freq.     276.49  E(vib)   ...       0.28 
freq.     298.03  E(vib)   ...       0.27 
freq.     303.36  E(vib)   ...       0.26 
freq.     326.10  E(vib)   ...       0.24 
freq.     339.58  E(vib)   ...       0.23 
freq.     351.12  E(vib)   ...       0.23 
freq.     354.60  E(vib)   ...       0.22 
freq.     359.98  E(vib)   ...       0.22 
freq.     366.63  E(vib)   ...       0.22 
freq.     368.45  E(vib)   ...       0.21 
freq.     401.69  E(vib)   ...       0.19 
freq.     455.96  E(vib)   ...       0.16 
freq.     502.83  E(vib)   ...       0.14 
freq.     508.05  E(vib)   ...       0.14 
freq.     520.87  E(vib)   ...       0.13 
freq.     544.80  E(vib)   ...       0.12 
freq.     552.38  E(vib)   ...       0.12 
freq.     571.39  E(vib)   ...       0.11 
freq.     579.90  E(vib)   ...       0.11 
freq.     589.56  E(vib)   ...       0.10 
freq.     608.09  E(vib)   ...       0.10 
freq.     631.27  E(vib)   ...       0.09 
freq.     640.50  E(vib)   ...       0.09 
freq.     672.74  E(vib)   ...       0.08 
freq.     694.87  E(vib)   ...       0.07 
freq.     713.92  E(vib)   ...       0.07 
freq.     743.36  E(vib)   ...       0.06 
freq.     765.46  E(vib)   ...       0.06 
freq.     861.59  E(vib)   ...       0.04 
freq.     994.91  E(vib)   ...       0.02 
freq.    1084.99  E(vib)   ...       0.02 
freq.    1109.94  E(vib)   ...       0.02 
freq.    1120.63  E(vib)   ...       0.01 
freq.    1125.48  E(vib)   ...       0.01 
freq.    1131.62  E(vib)   ...       0.01 
freq.    1136.81  E(vib)   ...       0.01 
freq.    1139.21  E(vib)   ...       0.01 
freq.    1143.33  E(vib)   ...       0.01 
freq.    1151.51  E(vib)   ...       0.01 
freq.    1154.68  E(vib)   ...       0.01 
freq.    1162.34  E(vib)   ...       0.01 
freq.    1174.19  E(vib)   ...       0.01 
freq.    1178.70  E(vib)   ...       0.01 
freq.    1191.82  E(vib)   ...       0.01 
freq.    1215.31  E(vib)   ...       0.01 
freq.    1244.39  E(vib)   ...       0.01 
freq.    1262.70  E(vib)   ...       0.01 
freq.    1282.68  E(vib)   ...       0.01 
freq.    1335.88  E(vib)   ...       0.01 
freq.    1391.98  E(vib)   ...       0.00 
freq.    1809.12  E(vib)   ...       0.00 
freq.    3604.36  E(vib)   ...       0.00 

------------
INNER ENERGY
------------

The inner energy is: U= E(el) + E(ZPE) + E(vib) + E(rot) + E(trans)
    E(el)   - is the total energy from the electronic structure calculation
              = E(kin-el) + E(nuc-el) + E(el-el) + E(nuc-nuc)
    E(ZPE)  - the the zero temperature vibrational energy from the frequency calculation
    E(vib)  - the the finite temperature correction to E(ZPE) due to population
              of excited vibrational states
    E(rot)  - is the rotational thermal energy
    E(trans)- is the translational thermal energy

Summary of contributions to the inner energy U:
Electronic energy                ...  -1954.34533763 Eh
Zero point energy                ...      0.10885130 Eh      68.31 kcal/mol
Thermal vibrational correction   ...      0.02092940 Eh      13.13 kcal/mol
Thermal rotational correction    ...      0.00141627 Eh       0.89 kcal/mol
Thermal translational correction ...      0.00141627 Eh       0.89 kcal/mol
-----------------------------------------------------------------------
Total thermal energy                  -1954.21272438 Eh


Summary of corrections to the electronic energy:
(perhaps to be used in another calculation)
Total thermal correction                  0.02376195 Eh      14.91 kcal/mol
Non-thermal (ZPE) correction              0.10885130 Eh      68.31 kcal/mol
-----------------------------------------------------------------------
Total correction                          0.13261324 Eh      83.22 kcal/mol


--------
ENTHALPY
--------

The enthalpy is H = U + kB*T
                kB is Boltzmann's constant
Total thermal energy              ...  -1954.21272438 Eh 
Thermal Enthalpy correction       ...      0.00094421 Eh       0.59 kcal/mol
-----------------------------------------------------------------------
Total Enthalpy                    ...  -1954.21178018 Eh


Note: Only C1 symmetry has been detected, increase convergence thresholds 
      if your molecule has a higher symmetry. Symmetry factor of 1.0 is   
      used for the rotational entropy correction. 
 

Note: Rotational entropy computed according to Herzberg 
Infrared and Raman Spectra, Chapter V,1, Van Nostrand Reinhold, 1945 
Point Group:  C1, Symmetry Number:   1  
Rotational constants in cm-1:     0.021210     0.003676     0.003637 

Vibrational entropy computed according to the QRRHO of S. Grimme
Chem.Eur.J. 2012 18 9955 using a reference frequency of 100.0 cm-1


-------
ENTROPY
-------

The entropy contributions are T*S = T*(S(el)+S(vib)+S(rot)+S(trans))
     S(el)   - electronic entropy
     S(vib)  - vibrational entropy
     S(rot)  - rotational entropy
     S(trans)- translational entropy
The entropies will be listed as multiplied by the temperature to get
units of energy

Electronic entropy                ...      0.00000000 Eh      0.00 kcal/mol
Vibrational entropy               ...      0.03758241 Eh     23.58 kcal/mol
Rotational entropy                ...      0.01662803 Eh     10.43 kcal/mol
Translational entropy             ...      0.02088355 Eh     13.10 kcal/mol
-----------------------------------------------------------------------
Final entropy term                ...      0.07509399 Eh     47.12 kcal/mol

In case the symmetry of your molecule has not been determined correctly
or in case you have a reason to use a different symmetry number we print 
out the resulting rotational entropy values for sn=1,12:

 non-linear molecules -----------------------------------
|  sn= 1 | S(rot)=       0.01662803 Eh     10.43 kcal/mol|
|  sn= 2 | S(rot)=       0.01597357 Eh     10.02 kcal/mol|
|  sn= 3 | S(rot)=       0.01559074 Eh      9.78 kcal/mol|
|  sn= 4 | S(rot)=       0.01531912 Eh      9.61 kcal/mol|
|  sn= 5 | S(rot)=       0.01510843 Eh      9.48 kcal/mol|
|  sn= 6 | S(rot)=       0.01493628 Eh      9.37 kcal/mol|
|  sn= 7 | S(rot)=       0.01479074 Eh      9.28 kcal/mol|
|  sn= 8 | S(rot)=       0.01466466 Eh      9.20 kcal/mol|
|  sn= 9 | S(rot)=       0.01455345 Eh      9.13 kcal/mol|
|  sn=10 | S(rot)=       0.01445397 Eh      9.07 kcal/mol|
|  sn=11 | S(rot)=       0.01436398 Eh      9.01 kcal/mol|
|  sn=12 | S(rot)=       0.01428183 Eh      8.96 kcal/mol|
 linear molecules ---------------------------------------
|  Dinfh | S(rot)=       0.01062900 Eh      6.67 kcal/mol|
|  Cinfv | S(rot)=       0.01128346 Eh      7.08 kcal/mol|
 --------------------------------------------------------


-------------------
GIBBS FREE ENERGY
-------------------

The Gibbs free energy is G = H - T*S

Total enthalpy                    ...  -1954.21178018 Eh 
Total entropy correction          ...     -0.07509399 Eh    -47.12 kcal/mol
-----------------------------------------------------------------------
Final Gibbs free energy         ...  -1954.28687417 Eh

For completeness - the Gibbs free energy minus the electronic energy
G-E(el)                           ...      0.05846346 Eh     36.69 kcal/mol


Maximum memory used throughout the entire PROP-calculation: 337.4 MB

--------------------------------
SUGGESTED CITATIONS FOR THIS RUN
--------------------------------

Below you find a list of papers that are relevant to this ORCA run
We neither can nor want to force you to cite these papers, but we appreciate if you do
You receive ORCA, which is the product of decades of hard work by many enthusiastic individuals, for free
The only thing we kindly ask in return is that you cite our papers,
We deeply appreciate it, if you show your appreciation for ORCA by not just citing the generic ORCA reference.

Please note that relegating all ORCA citations to the supporting information does *not* help us.
SI sections are not indexed - citations you put there will not count into any citation statistics
But we need these citations in order to attract the funding resources that allow us to do what we are doing

Therefore, if you are a happy ORCA user, please consider citing a few of the papers listed below in the main body of your paper

In addition to the list printed below, the program has created the file rf_mecn_freq_TP_P_A.bibtex that contains the list in bibtex format
You can import this file easily into all common literature databanks and citation aid programs


List of essential papers. We consider these as the minimum necessary citations

  1. Neese,F.
     Software update: the ORCA program system, version 5.0
     WIRES Comput. Molec. Sci., 2022 12(1)e1606
     doi.org/10.1002/wcms.1606

List of papers to cite with high priority. The work reported in these papers was absolutely
necessary for this run to complete.
Our perspective: the developers of density functionals and basis sets usually get cited in chemistry papers
Good! But without the algorithms to do something with them, the functionals or basis sets would not do anything.
Hence, in our opinion, the algorithm design and method developments papers are equally worthy of getting cited

  1. Neese,F.
     An improvement of the resolution of the identity approximation for the formation of the Coulomb matrix
     J. Comp. Chem., 2003 24(14)1740-1747
     doi.org/10.1002/jcc.10318
  2. Neese,F.; Wennmohs,F.; Hansen,A.; Becker,U.
     Efficient, approximate and parallel Hartree-Fock and hybrid DFT calculations. A 'chain-of-spheres' algorithm for the Hartree-Fock exchange
     Chem. Phys., 2009 356(1-3)98-109
     doi.org/10.1016/j.chemphys.2008.10.036
  3. Bykov,D.; Petrenko,T.; Izsak,R.; Kossmann,S.; Becker,U.; Valeev,E.; Neese,F.
     Efficient implementation of the analytic second derivatives of Hartree-Fock and hybrid DFT energies: a detailed analysis of different approximations
     Molec. Phys., 2015 113 1961-1977
     doi.org/10.1080/00268976.2015.1025114
  4. Garcia-Rates,M.; Neese,F.
     Efficient implementation of the analytical second derivatives of hartree-fock and hybrid DFT energies within the framework of the conductor-like polarizable continuum model
     J. Comput. Chem., 2019 40 1816-1828
     doi.org/10.1002/jcc.25833
  5. Garcia-Rates,M.; Neese,F.
     Effect of the Solute Cavity on the Solvation Energy and its Derivatives within the Framework of the Gaussian Charge Scheme
     J. Comput. Chem., 2020 41 922-939
     doi.org/10.1002/jcc.26139
  6. Helmich-Paris,B.; de Souza,B.; Neese,F.; Izsák,R.
     An improved chain of spheres for exchange algorithm
     J. Chem. Phys., 2021 155 104109
     doi.org/doi: 10.1063/5.0058766.
  7. Neese,F.
     The SHARK Integral Generation and Digestion System
     J. Comp. Chem., 2022  1-16
     doi.org/10.1002/jcc.26942
  8. Grimme,S.; Antony,J.; Ehrlich,S.; Krieg,H.
     A consistent and accurate ab initio parametrization of density functional dispersion correction (DFT-D) for the 94 elements H-Pu
     J. Chem. Phys., 2010 132 154104
     doi.org/10.1063/1.3382344
  9. Grimme,S.; Ehrlich,S.; Goerigk,L.
     Effect of the damping function in dispersion corrected density functional theory
     J. Comput. Chem., 2011 32(7)1456-1465
     doi.org/10.1002/jcc.21759

List of suggested additional citations. These are papers that are important in the 'surrounding' of 
of this run, or papers that preceded the highly important papers. If you like your results we are grateful for a citation.

  1. Izsak,R.; Neese,F.
     An overlap fitted chain of spheres exchange method
     J. Chem. Phys., 2011 135 144105
     doi.org/10.1063/1.3646921
  2. Izsak,R.; Hansen,A.; Neese,F.
     The resolution of identity and chain of spheres approximations for the LPNO-CCSD singles Fock term
     Molec. Phys., 2012 110 2413-2417
     doi.org/10.1080/00268976.2012.687466
  3. Neese,F.
     The ORCA program system
     WIRES Comput. Molec. Sci., 2012 2(1)73-78
     doi.org/10.1002/wcms.81
  4. Izsak,R.; Neese,F.; Klopper,W.
     Robust fitting techniques in the chain of spheres approximation to the Fock exchange: The role of the complementary space
     J. Chem. Phys., 2013 139 
     doi.org/10.1063/1.4819264
  5. Neese,F.
     Software update: the ORCA program system, version 4.0
     WIRES Comput. Molec. Sci., 2018 8(1)1-6
     doi.org/10.1002/wcms.1327
  6. Neese,F.; Wennmohs,F.; Becker,U.; Riplinger,C.
     The ORCA quantum chemistry program package
     J. Chem. Phys., 2020 152 Art. No. L224108
     doi.org/10.1063/5.0004608

List of optional additional citations

  1. Neese,F.
     Approximate second-order SCF convergence for spin unrestricted wavefunctions
     Chem. Phys. Lett., 2000 325(1-3)93-98
     doi.org/10.1016/s0009-2614(00)00662-x

Timings for individual modules:

Sum of individual times          ...      993.133 sec (=  16.552 min)
Startup calculation              ...        4.138 sec (=   0.069 min)   0.4 %
SCF iterations                   ...       83.515 sec (=   1.392 min)   8.4 %
Property integrals               ...      270.627 sec (=   4.510 min)  27.2 %
SCF Response                     ...      383.444 sec (=   6.391 min)  38.6 %
Property calculations            ...      251.409 sec (=   4.190 min)  25.3 %
                             ****ORCA TERMINATED NORMALLY****
TOTAL RUN TIME: 0 days 0 hours 16 minutes 34 seconds 277 msec
