
                                 *****************
                                 * O   R   C   A *
                                 *****************

                                            #,                                       
                                            ###                                      
                                            ####                                     
                                            #####                                    
                                            ######                                   
                                           ########,                                 
                                     ,,################,,,,,                         
                               ,,#################################,,                 
                          ,,##########################################,,             
                       ,#########################################, ''#####,          
                    ,#############################################,,   '####,        
                  ,##################################################,,,,####,       
                ,###########''''           ''''###############################       
              ,#####''   ,,,,##########,,,,          '''####'''          '####       
            ,##' ,,,,###########################,,,                        '##       
           ' ,,###''''                  '''############,,,                           
         ,,##''                                '''############,,,,        ,,,,,,###''
      ,#''                                            '''#######################'''  
     '                                                          ''''####''''         
             ,#######,   #######,   ,#######,      ##                                
            ,#'     '#,  ##    ##  ,#'     '#,    #''#        ######   ,####,        
            ##       ##  ##   ,#'  ##            #'  '#       #        #'  '#        
            ##       ##  #######   ##           ,######,      #####,   #    #        
            '#,     ,#'  ##    ##  '#,     ,#' ,#      #,         ##   #,  ,#        
             '#######'   ##     ##  '#######'  #'      '#     #####' # '####'        



                  #######################################################
                  #                        -***-                        #
                  #          Department of theory and spectroscopy      #
                  #    Directorship and core code : Frank Neese         #
                  #        Max Planck Institute fuer Kohlenforschung    #
                  #                Kaiser Wilhelm Platz 1               #
                  #                 D-45470 Muelheim/Ruhr               #
                  #                      Germany                        #
                  #                                                     #
                  #                  All rights reserved                #
                  #                        -***-                        #
                  #######################################################


                         Program Version 5.0.3 -  RELEASE  -


 With contributions from (in alphabetic order):
   Daniel Aravena         : Magnetic Suceptibility
   Michael Atanasov       : Ab Initio Ligand Field Theory (pilot matlab implementation)
   Alexander A. Auer      : GIAO ZORA, VPT2 properties, NMR spectrum
   Ute Becker             : Parallelization
   Giovanni Bistoni       : ED, misc. LED, open-shell LED, HFLD
   Martin Brehm           : Molecular dynamics
   Dmytro Bykov           : SCF Hessian
   Vijay G. Chilkuri      : MRCI spin determinant printing, contributions to CSF-ICE
   Dipayan Datta          : RHF DLPNO-CCSD density
   Achintya Kumar Dutta   : EOM-CC, STEOM-CC
   Dmitry Ganyushin       : Spin-Orbit,Spin-Spin,Magnetic field MRCI
   Miquel Garcia          : C-PCM and meta-GGA Hessian, CC/C-PCM, Gaussian charge scheme
   Yang Guo               : DLPNO-NEVPT2, F12-NEVPT2, CIM, IAO-localization
   Andreas Hansen         : Spin unrestricted coupled pair/coupled cluster methods
   Benjamin Helmich-Paris : MC-RPA, TRAH-SCF, COSX integrals
   Lee Huntington         : MR-EOM, pCC
   Robert Izsak           : Overlap fitted RIJCOSX, COSX-SCS-MP3, EOM
   Marcus Kettner         : VPT2
   Christian Kollmar      : KDIIS, OOCD, Brueckner-CCSD(T), CCSD density, CASPT2, CASPT2-K
   Simone Kossmann        : Meta GGA functionals, TD-DFT gradient, OOMP2, MP2 Hessian
   Martin Krupicka        : Initial AUTO-CI
   Lucas Lang             : DCDCAS
   Marvin Lechner         : AUTO-CI (C++ implementation), FIC-MRCC
   Dagmar Lenk            : GEPOL surface, SMD
   Dimitrios Liakos       : Extrapolation schemes; Compound Job, initial MDCI parallelization
   Dimitrios Manganas     : Further ROCIS development; embedding schemes
   Dimitrios Pantazis     : SARC Basis sets
   Anastasios Papadopoulos: AUTO-CI, single reference methods and gradients
   Taras Petrenko         : DFT Hessian,TD-DFT gradient, ASA, ECA, R-Raman, ABS, FL, XAS/XES, NRVS
   Peter Pinski           : DLPNO-MP2, DLPNO-MP2 Gradient
   Christoph Reimann      : Effective Core Potentials
   Marius Retegan         : Local ZFS, SOC
   Christoph Riplinger    : Optimizer, TS searches, QM/MM, DLPNO-CCSD(T), (RO)-DLPNO pert. Triples
   Tobias Risthaus        : Range-separated hybrids, TD-DFT gradient, RPA, STAB
   Michael Roemelt        : Original ROCIS implementation
   Masaaki Saitow         : Open-shell DLPNO-CCSD energy and density
   Barbara Sandhoefer     : DKH picture change effects
   Avijit Sen             : IP-ROCIS
   Kantharuban Sivalingam : CASSCF convergence, NEVPT2, FIC-MRCI
   Bernardo de Souza      : ESD, SOC TD-DFT
   Georgi Stoychev        : AutoAux, RI-MP2 NMR, DLPNO-MP2 response
   Willem Van den Heuvel  : Paramagnetic NMR
   Boris Wezisla          : Elementary symmetry handling
   Frank Wennmohs         : Technical directorship


 We gratefully acknowledge several colleagues who have allowed us to
 interface, adapt or use parts of their codes:
   Stefan Grimme, W. Hujo, H. Kruse, P. Pracht,  : VdW corrections, initial TS optimization,
                  C. Bannwarth, S. Ehlert          DFT functionals, gCP, sTDA/sTD-DF
   Ed Valeev, F. Pavosevic, A. Kumar             : LibInt (2-el integral package), F12 methods
   Garnet Chan, S. Sharma, J. Yang, R. Olivares  : DMRG
   Ulf Ekstrom                                   : XCFun DFT Library
   Mihaly Kallay                                 : mrcc  (arbitrary order and MRCC methods)
   Jiri Pittner, Ondrej Demel                    : Mk-CCSD
   Frank Weinhold                                : gennbo (NPA and NBO analysis)
   Christopher J. Cramer and Donald G. Truhlar   : smd solvation model
   Lars Goerigk                                  : TD-DFT with DH, B97 family of functionals
   V. Asgeirsson, H. Jonsson                     : NEB implementation
   FAccTs GmbH                                   : IRC, NEB, NEB-TS, DLPNO-Multilevel, CI-OPT
                                                   MM, QMMM, 2- and 3-layer-ONIOM, Crystal-QMMM,
                                                   LR-CPCM, SF, NACMEs, symmetry and pop. for TD-DFT,
                                                   nearIR, NL-DFT gradient (VV10), updates on ESD,
                                                   ML-optimized integration grids
   S Lehtola, MJT Oliveira, MAL Marques          : LibXC Library
   Liviu Ungur et al                             : ANISO software


 Your calculation uses the libint2 library for the computation of 2-el integrals
 For citations please refer to: http://libint.valeyev.net

 Your ORCA version has been built with support for libXC version: 5.1.0
 For citations please refer to: https://tddft.org/programs/libxc/

 This ORCA versions uses:
   CBLAS   interface :  Fast vector & matrix operations
   LAPACKE interface :  Fast linear algebra routines
   SCALAPACK package :  Parallel linear algebra routines
   Shared memory     :  Shared parallel matrices
   BLAS/LAPACK       :  OpenBLAS 0.3.15  USE64BITINT DYNAMIC_ARCH NO_AFFINITY SkylakeX SINGLE_THREADED
        Core in use  :  SkylakeX
   Copyright (c) 2011-2014, The OpenBLAS Project


Your calculation utilizes the atom-pairwise dispersion correction
with the Becke-Johnson damping scheme (D3BJ)
Cite in your paper:
S.Grimme, S.Ehrlich, L.Goerigk, J Comput Chem, (2011), 32, 1456–1465 
S.Grimme, J.Antony, S.Ehrlich and H.Krieg, J.Chem.Phys., 132, (2010), 154104 
   

Your calculation utilizes the SMD solvation module
Please cite in your paper:
A.V. Marenich, C.J. Cramer, D.G. Truhlar J. Phys. Chem. B, 113, (2009), 6378 

================================================================================

----- Orbital basis set information -----
Your calculation utilizes the basis: def2-TZVP
   F. Weigend and R. Ahlrichs, Phys. Chem. Chem. Phys. 7, 3297 (2005).

----- AuxJ basis set information -----
Your calculation utilizes the auxiliary basis: def2/J
   F. Weigend, Phys. Chem. Chem. Phys. 8, 1057 (2006).

================================================================================
                                        WARNINGS
                       Please study these warnings very carefully!
================================================================================


WARNING: your system is open-shell and RHF/RKS was chosen
  ===> : WILL SWITCH to UHF/UKS


WARNING: Geometry Optimization
  ===> : Switching off AutoStart
         For restart on a previous wavefunction, please use MOREAD

INFO   : the flag for use of the SHARK integral package has been found!

================================================================================
                                       INPUT FILE
================================================================================
NAME = rf_mecn_opt_B3L_C6_D_B.inp
|  1> !B3LYP def2-TZVP opt d3 TightSCF SlowConv defgrid2
|  2>  
|  3> %pal
|  4> nprocs 20
|  5> end
|  6>  
|  7> %scf
|  8> MaxIter 1500
|  9> end
| 10>  
| 11> %maxcore 8000
| 12>  
| 13> !CPCM
| 14> %cpcm smd true
| 15> SMDsolvent "ACETONITRILE"
| 16> end
| 17>  
| 18> * xyz -1 2
| 19> 6        4.790427000     -0.033865800     -0.529943200
| 20> 8        5.449345000     -1.206924000     -0.894594600
| 21> 8        4.978223000      1.323071000     -0.737377200
| 22> 6        3.506687600     -0.338741600      0.376153800
| 23> 6        2.222300000      0.400524800     -0.110681600
| 24> 6        0.900506800     -0.386389800      0.175703000
| 25> 6       -0.395261200      0.487294000      0.065549000
| 26> 6       -1.705693600     -0.364773800     -0.068373600
| 27> 6       -3.005136200      0.445344800      0.258164000
| 28> 6       -4.319880200     -0.214526000     -0.270540800
| 29> 9        3.211587400     -1.692050400      0.412735200
| 30> 9        3.741061800      0.055285800      1.689948800
| 31> 9        2.125696800      1.616867800      0.483236600
| 32> 9        2.314152400      0.589704000     -1.455769200
| 33> 9        0.794028800     -1.413561400     -0.700839000
| 34> 9        0.958350600     -0.884509000      1.435093400
| 35> 9       -0.498373400      1.260265600      1.173340200
| 36> 9       -0.299075000      1.289512600     -1.020910800
| 37> 9       -1.641790400     -1.418189000      0.779523800
| 38> 9       -2.918792200      1.679227200     -0.295171200
| 39> 9       -3.119771000      0.573779800      1.598579800
| 40> 9       -4.383115600     -1.504377600      0.089127600
| 41> 9       -5.365669800      0.430528600      0.260394200
| 42> 9       -4.396020400     -0.128550600     -1.602941800
| 43> *
| 44> 
| 45>                          ****END OF INPUT****
================================================================================

                       *****************************
                       * Geometry Optimization Run *
                       *****************************

Geometry optimization settings:
Update method            Update   .... BFGS
Choice of coordinates    CoordSys .... Z-matrix Internals
Initial Hessian          InHess   .... Almoef's Model

Convergence Tolerances:
Energy Change            TolE     ....  5.0000e-06 Eh
Max. Gradient            TolMAXG  ....  3.0000e-04 Eh/bohr
RMS Gradient             TolRMSG  ....  1.0000e-04 Eh/bohr
Max. Displacement        TolMAXD  ....  4.0000e-03 bohr
RMS Displacement         TolRMSD  ....  2.0000e-03 bohr
Strict Convergence                ....  False
------------------------------------------------------------------------------
                        ORCA OPTIMIZATION COORDINATE SETUP
------------------------------------------------------------------------------

The optimization will be done in new redundant internal coordinates
Making redundant internal coordinates   ...  (new redundants) done
Evaluating the initial hessian          ...  (Almloef) done
Evaluating the coordinates              ...  done
Calculating the B-matrix                .... done
Calculating the G-matrix                .... done
Diagonalizing the G-matrix              .... done
Small eigenvalue found = 5.692e-03
Small eigenvalue found = 1.569e-02
The first mode is                       ....   53
The number of degrees of freedom        ....   66

    -----------------------------------------------------------------
                    Redundant Internal Coordinates


    -----------------------------------------------------------------
         Definition                    Initial Value    Approx d2E/dq
    -----------------------------------------------------------------
      1. B(O   1,C   0)                  1.3940         0.551454   
      2. B(O   2,C   0)                  1.3855         0.568952   
      3. B(C   3,C   0)                  1.6006         0.288221   
      4. B(C   4,C   3)                  1.5599         0.334759   
      5. B(C   5,C   4)                  1.5647         0.328824   
      6. B(C   6,C   5)                  1.5667         0.326486   
      7. B(C   7,C   6)                  1.5688         0.323927   
      8. B(C   8,C   7)                  1.5657         0.327637   
      9. B(C   9,C   8)                  1.5632         0.330714   
     10. B(F  10,C   3)                  1.3856         0.528443   
     11. B(F  11,C   3)                  1.3915         0.517117   
     12. B(F  12,C   4)                  1.3570         0.586881   
     13. B(F  13,C   4)                  1.3614         0.577499   
     14. B(F  14,C   5)                  1.3545         0.592326   
     15. B(F  15,C   5)                  1.3556         0.590092   
     16. B(F  16,C   6)                  1.3547         0.591865   
     17. B(F  17,C   6)                  1.3540         0.593567   
     18. B(F  18,C   7)                  1.3538         0.593973   
     19. B(F  19,C   8)                  1.3550         0.591238   
     20. B(F  20,C   8)                  1.3514         0.599114   
     21. B(F  21,C   9)                  1.3406         0.623533   
     22. B(F  22,C   9)                  1.3385         0.628179   
     23. B(F  23,C   9)                  1.3373         0.630929   
     24. A(O   1,C   0,C   3)          111.5249         0.369222   
     25. A(O   2,C   0,C   3)          112.3347         0.371210   
     26. A(O   1,C   0,O   2)          136.1318         0.413163   
     27. A(C   4,C   3,F  10)          107.2033         0.374492   
     28. A(C   4,C   3,F  11)          107.4072         0.373095   
     29. A(F  10,C   3,F  11)          106.7094         0.399684   
     30. A(C   0,C   3,C   4)          113.1687         0.341363   
     31. A(C   0,C   3,F  11)          110.2099         0.363632   
     32. A(C   0,C   3,F  10)          111.8265         0.364982   
     33. A(C   3,C   4,F  12)          110.2926         0.381351   
     34. A(F  12,C   4,F  13)          108.2194         0.415201   
     35. A(C   3,C   4,C   5)          113.5839         0.349005   
     36. A(C   3,C   4,F  13)          108.5818         0.380286   
     37. A(C   5,C   4,F  13)          107.9208         0.379109   
     38. A(C   5,C   4,F  12)          108.0911         0.380169   
     39. A(F  14,C   5,F  15)          109.0206         0.417483   
     40. A(C   4,C   5,C   6)          113.9128         0.347536   
     41. A(C   6,C   5,F  15)          107.7906         0.380059   
     42. A(C   4,C   5,F  15)          108.5900         0.380529   
     43. A(C   4,C   5,F  14)          109.2282         0.380779   
     44. A(C   6,C   5,F  14)          108.2026         0.380308   
     45. A(C   5,C   6,C   7)          113.2023         0.346660   
     46. A(F  16,C   6,F  17)          108.8752         0.417862   
     47. A(C   7,C   6,F  17)          108.2186         0.379927   
     48. A(C   5,C   6,F  17)          109.1523         0.380446   
     49. A(C   7,C   6,F  16)          108.4284         0.379738   
     50. A(C   5,C   6,F  16)          108.8835         0.380256   
     51. A(C   8,C   7,F  18)          108.1296         0.380723   
     52. A(C   6,C   7,F  18)          109.2524         0.379972   
     53. A(C   6,C   7,C   8)          113.2298         0.346865   
     54. A(F  19,C   8,F  20)          108.8987         0.418476   
     55. A(C   7,C   8,C   9)          114.1471         0.348078   
     56. A(C   9,C   8,F  20)          107.7127         0.381912   
     57. A(C   7,C   8,F  20)          109.0521         0.381293   
     58. A(C   9,C   8,F  19)          107.4499         0.381036   
     59. A(C   7,C   8,F  19)          109.4572         0.380419   
     60. A(F  22,C   9,F  23)          108.6464         0.426961   
     61. A(F  21,C   9,F  23)          109.0552         0.426394   
     62. A(C   8,C   9,F  23)          110.9604         0.385362   
     63. A(F  21,C   9,F  22)          108.6877         0.426061   
     64. A(C   8,C   9,F  22)          108.6349         0.385069   
     65. A(C   8,C   9,F  21)          110.7995         0.384572   
     66. D(C   4,C   3,C   0,O   2)     49.8076         0.006601   
     67. D(F  11,C   3,C   0,O   1)    108.6317         0.006601   
     68. D(C   4,C   3,C   0,O   1)   -131.0839         0.006601   
     69. D(F  10,C   3,C   0,O   2)    171.0025         0.006601   
     70. D(F  11,C   3,C   0,O   2)    -70.4768         0.006601   
     71. D(F  10,C   3,C   0,O   1)     -9.8890         0.006601   
     72. D(F  13,C   4,C   3,C   0)     28.5784         0.009100   
     73. D(F  12,C   4,C   3,F  10)    146.3851         0.009100   
     74. D(F  13,C   4,C   3,F  11)    150.4470         0.009100   
     75. D(F  12,C   4,C   3,C   0)    -89.8453         0.009100   
     76. D(C   5,C   4,C   3,F  11)    -89.4885         0.009100   
     77. D(F  12,C   4,C   3,F  11)     32.0233         0.009100   
     78. D(C   5,C   4,C   3,C   0)    148.6429         0.009100   
     79. D(F  13,C   4,C   3,F  10)    -95.1911         0.009100   
     80. D(C   5,C   4,C   3,F  10)     24.8733         0.009100   
     81. D(F  15,C   5,C   4,F  13)    164.2540         0.008811   
     82. D(F  15,C   5,C   4,C   3)     43.8158         0.008811   
     83. D(F  14,C   5,C   4,F  13)     45.4721         0.008811   
     84. D(F  14,C   5,C   4,F  12)    162.3014         0.008811   
     85. D(F  14,C   5,C   4,C   3)    -74.9661         0.008811   
     86. D(C   6,C   5,C   4,F  13)    -75.6292         0.008811   
     87. D(F  15,C   5,C   4,F  12)    -78.9166         0.008811   
     88. D(C   6,C   5,C   4,F  12)     41.2001         0.008811   
     89. D(C   6,C   5,C   4,C   3)    163.9326         0.008811   
     90. D(F  16,C   6,C   5,F  15)     44.2190         0.008700   
     91. D(F  16,C   6,C   5,F  14)    161.9826         0.008700   
     92. D(F  16,C   6,C   5,C   4)    -76.3465         0.008700   
     93. D(C   7,C   6,C   5,C   4)    162.9815         0.008700   
     94. D(C   7,C   6,C   5,F  14)     41.3107         0.008700   
     95. D(F  17,C   6,C   5,C   4)     42.3872         0.008700   
     96. D(C   7,C   6,C   5,F  15)    -76.4529         0.008700   
     97. D(F  17,C   6,C   5,F  15)    162.9527         0.008700   
     98. D(F  17,C   6,C   5,F  14)    -79.2837         0.008700   
     99. D(F  18,C   7,C   6,F  16)    -79.1358         0.008059   
    100. D(F  18,C   7,C   6,C   5)     41.7939         0.008059   
    101. D(C   8,C   7,C   6,F  17)    -76.5134         0.008059   
    102. D(C   8,C   7,C   6,F  16)     41.4341         0.008059   
    103. D(F  18,C   7,C   6,F  17)    162.9167         0.008059   
    104. D(C   8,C   7,C   6,C   5)    162.3638         0.008059   
    105. D(F  20,C   8,C   7,F  18)     44.1231         0.008223   
    106. D(F  20,C   8,C   7,C   6)    -77.0818         0.008223   
    107. D(F  19,C   8,C   7,F  18)    163.1633         0.008223   
    108. D(F  19,C   8,C   7,C   6)     41.9584         0.008223   
    109. D(C   9,C   8,C   7,F  18)    -76.3785         0.008223   
    110. D(C   9,C   8,C   7,C   6)    162.4166         0.008223   
    111. D(F  23,C   9,C   8,F  20)    167.4828         0.008903   
    112. D(F  23,C   9,C   8,F  19)     50.3013         0.008903   
    113. D(F  23,C   9,C   8,C   7)    -71.2711         0.008903   
    114. D(F  22,C   9,C   8,F  20)     48.1091         0.008903   
    115. D(F  22,C   9,C   8,F  19)    -69.0724         0.008903   
    116. D(F  22,C   9,C   8,C   7)    169.3552         0.008903   
    117. D(F  21,C   9,C   8,F  20)    -71.2185         0.008903   
    118. D(F  21,C   9,C   8,F  19)    171.5999         0.008903   
    119. D(F  21,C   9,C   8,C   7)     50.0276         0.008903   
    -----------------------------------------------------------------

Number of atoms                         .... 24
Number of degrees of freedom            .... 119

         *************************************************************
         *                GEOMETRY OPTIMIZATION CYCLE   1            *
         *************************************************************
---------------------------------
CARTESIAN COORDINATES (ANGSTROEM)
---------------------------------
  C      4.790427   -0.033866   -0.529943
  O      5.449345   -1.206924   -0.894595
  O      4.978223    1.323071   -0.737377
  C      3.506688   -0.338742    0.376154
  C      2.222300    0.400525   -0.110682
  C      0.900507   -0.386390    0.175703
  C     -0.395261    0.487294    0.065549
  C     -1.705694   -0.364774   -0.068374
  C     -3.005136    0.445345    0.258164
  C     -4.319880   -0.214526   -0.270541
  F      3.211587   -1.692050    0.412735
  F      3.741062    0.055286    1.689949
  F      2.125697    1.616868    0.483237
  F      2.314152    0.589704   -1.455769
  F      0.794029   -1.413561   -0.700839
  F      0.958351   -0.884509    1.435093
  F     -0.498373    1.260266    1.173340
  F     -0.299075    1.289513   -1.020911
  F     -1.641790   -1.418189    0.779524
  F     -2.918792    1.679227   -0.295171
  F     -3.119771    0.573780    1.598580
  F     -4.383116   -1.504378    0.089128
  F     -5.365670    0.430529    0.260394
  F     -4.396020   -0.128551   -1.602942

----------------------------
CARTESIAN COORDINATES (A.U.)
----------------------------
  NO LB      ZA    FRAG     MASS         X           Y           Z
   0 C     6.0000    0    12.011    9.052595   -0.063997   -1.001448
   1 O     8.0000    0    15.999   10.297770   -2.280756   -1.690539
   2 O     8.0000    0    15.999    9.407478    2.500242   -1.393441
   3 C     6.0000    0    12.011    6.626679   -0.640129    0.710828
   4 C     6.0000    0    12.011    4.199538    0.756882   -0.209158
   5 C     6.0000    0    12.011    1.701711   -0.730171    0.332031
   6 C     6.0000    0    12.011   -0.746935    0.920852    0.123870
   7 C     6.0000    0    12.011   -3.223294   -0.689323   -0.129207
   8 C     6.0000    0    12.011   -5.678884    0.841580    0.487859
   9 C     6.0000    0    12.011   -8.163391   -0.405395   -0.511248
  10 F     9.0000    0    18.998    6.069021   -3.197512    0.779956
  11 F     9.0000    0    18.998    7.069582    0.104475    3.193540
  12 F     9.0000    0    18.998    4.016985    3.055437    0.913185
  13 F     9.0000    0    18.998    4.373114    1.114379   -2.751005
  14 F     9.0000    0    18.998    1.500497   -2.671244   -1.324394
  15 F     9.0000    0    18.998    1.811020   -1.671480    2.711934
  16 F     9.0000    0    18.998   -0.941789    2.381557    2.217292
  17 F     9.0000    0    18.998   -0.565170    2.436826   -1.929242
  18 F     9.0000    0    18.998   -3.102534   -2.679989    1.473086
  19 F     9.0000    0    18.998   -5.515718    3.173280   -0.557793
  20 F     9.0000    0    18.998   -5.895513    1.084287    3.020878
  21 F     9.0000    0    18.998   -8.282888   -2.842862    0.168427
  22 F     9.0000    0    18.998  -10.139646    0.813581    0.492074
  23 F     9.0000    0    18.998   -8.307275   -0.242925   -3.029121

--------------------------------
INTERNAL COORDINATES (ANGSTROEM)
--------------------------------
 C      0   0   0     0.000000000000     0.00000000     0.00000000
 O      1   0   0     1.393990356793     0.00000000     0.00000000
 O      1   2   0     1.385486802956   136.13177198     0.00000000
 C      1   2   3     1.600608594862   111.52489317   181.18992567
 C      4   1   2     1.559863783763   113.16872737   228.91614990
 C      5   4   1     1.564732561934   113.58394786   148.64287440
 C      6   5   4     1.566675459667   113.91280616   163.93256239
 C      7   6   5     1.568817348692   113.20226571   162.98152714
 C      8   7   6     1.565717094808   113.22984595   162.36375422
 C      9   8   7     1.563173062643   114.14707705   162.41661495
 F      4   1   2     1.385592665621   111.82651119   350.11101305
 F      4   1   2     1.391490625050   110.20991618   108.63170802
 F      5   4   1     1.357041377479   110.29260564   270.15468021
 F      5   4   1     1.361428031433   108.58179722    28.57841973
 F      6   5   4     1.354527570075   109.22822656   285.03385927
 F      6   5   4     1.355556277776   108.59004089    43.81583148
 F      7   6   5     1.354739297058   108.88346185   283.65347401
 F      7   6   5     1.353957667090   109.15230848    42.38718856
 F      8   7   6     1.353771473879   109.25240264    41.79387651
 F      9   8   7     1.355028009646   109.45719767    41.95842364
 F      9   8   7     1.351425618925   109.05210362   282.91820052
 F     10   9   8     1.340551089588   110.79953142    50.02756898
 F     10   9   8     1.338530275591   108.63493714   169.35523750
 F     10   9   8     1.337341214598   110.96044107   288.72891896

---------------------------
INTERNAL COORDINATES (A.U.)
---------------------------
 C      0   0   0     0.000000000000     0.00000000     0.00000000
 O      1   0   0     2.634260007667     0.00000000     0.00000000
 O      1   2   0     2.618190619750   136.13177198     0.00000000
 C      1   2   3     3.024711891890   111.52489317   181.18992567
 C      4   1   2     2.947715357535   113.16872737   228.91614990
 C      5   4   1     2.956916014884   113.58394786   148.64287440
 C      6   5   4     2.960587559506   113.91280616   163.93256239
 C      7   6   5     2.964635143173   113.20226571   162.98152714
 C      8   7   6     2.958776512386   113.22984595   162.36375422
 C      9   8   7     2.953968988318   114.14707705   162.41661495
 F      4   1   2     2.618390671194   111.82651119   350.11101305
 F      4   1   2     2.629536199263   110.20991618   108.63170802
 F      5   4   1     2.564436555835   110.29260564   270.15468021
 F      5   4   1     2.572726130452   108.58179722    28.57841973
 F      6   5   4     2.559686148288   109.22822656   285.03385927
 F      6   5   4     2.561630124115   108.59004089    43.81583148
 F      7   6   5     2.560086254300   108.88346185   283.65347401
 F      7   6   5     2.558609187723   109.15230848    42.38718856
 F      8   7   6     2.558257333546   109.25240264    41.79387651
 F      9   8   7     2.560631842023   109.45719767    41.95842364
 F      9   8   7     2.553824310132   109.05210362   282.91820052
 F     10   9   8     2.533274427850   110.79953142    50.02756898
 F     10   9   8     2.529455642830   108.63493714   169.35523750
 F     10   9   8     2.527208643196   110.96044107   288.72891896

---------------------
BASIS SET INFORMATION
---------------------
There are 3 groups of distinct atoms

 Group   1 Type C   : 11s6p2d1f contracted to 5s3p2d1f pattern {62111/411/11/1}
 Group   2 Type O   : 11s6p2d1f contracted to 5s3p2d1f pattern {62111/411/11/1}
 Group   3 Type F   : 11s6p2d1f contracted to 5s3p2d1f pattern {62111/411/11/1}

Atom   0C    basis set group =>   1
Atom   1O    basis set group =>   2
Atom   2O    basis set group =>   2
Atom   3C    basis set group =>   1
Atom   4C    basis set group =>   1
Atom   5C    basis set group =>   1
Atom   6C    basis set group =>   1
Atom   7C    basis set group =>   1
Atom   8C    basis set group =>   1
Atom   9C    basis set group =>   1
Atom  10F    basis set group =>   3
Atom  11F    basis set group =>   3
Atom  12F    basis set group =>   3
Atom  13F    basis set group =>   3
Atom  14F    basis set group =>   3
Atom  15F    basis set group =>   3
Atom  16F    basis set group =>   3
Atom  17F    basis set group =>   3
Atom  18F    basis set group =>   3
Atom  19F    basis set group =>   3
Atom  20F    basis set group =>   3
Atom  21F    basis set group =>   3
Atom  22F    basis set group =>   3
Atom  23F    basis set group =>   3
---------------------------------
AUXILIARY/J BASIS SET INFORMATION
---------------------------------
There are 3 groups of distinct atoms

 Group   1 Type C   : 12s5p4d2f1g contracted to 6s4p3d1f1g pattern {711111/2111/211/2/1}
 Group   2 Type O   : 12s5p4d2f1g contracted to 6s4p3d1f1g pattern {711111/2111/211/2/1}
 Group   3 Type F   : 12s5p4d2f1g contracted to 6s4p3d1f1g pattern {711111/2111/211/2/1}

Atom   0C    basis set group =>   1
Atom   1O    basis set group =>   2
Atom   2O    basis set group =>   2
Atom   3C    basis set group =>   1
Atom   4C    basis set group =>   1
Atom   5C    basis set group =>   1
Atom   6C    basis set group =>   1
Atom   7C    basis set group =>   1
Atom   8C    basis set group =>   1
Atom   9C    basis set group =>   1
Atom  10F    basis set group =>   3
Atom  11F    basis set group =>   3
Atom  12F    basis set group =>   3
Atom  13F    basis set group =>   3
Atom  14F    basis set group =>   3
Atom  15F    basis set group =>   3
Atom  16F    basis set group =>   3
Atom  17F    basis set group =>   3
Atom  18F    basis set group =>   3
Atom  19F    basis set group =>   3
Atom  20F    basis set group =>   3
Atom  21F    basis set group =>   3
Atom  22F    basis set group =>   3
Atom  23F    basis set group =>   3


           ************************************************************
           *        Program running with 20 parallel MPI-processes    *
           *              working on a common directory               *
           ************************************************************
------------------------------------------------------------------------------
                           ORCA GTO INTEGRAL CALCULATION
                           -- RI-GTO INTEGRALS CHOSEN --
------------------------------------------------------------------------------
------------------------------------------------------------------------------
                   ___                                                        
                  /   \      - P O W E R E D   B Y -                         
                 /     \                                                     
                 |  |  |   _    _      __       _____    __    __             
                 |  |  |  | |  | |    /  \     |  _  \  |  |  /  |          
                  \  \/   | |  | |   /    \    | | | |  |  | /  /          
                 / \  \   | |__| |  /  /\  \   | |_| |  |  |/  /          
                |  |  |   |  __  | /  /__\  \  |    /   |      \           
                |  |  |   | |  | | |   __   |  |    \   |  |\   \          
                \     /   | |  | | |  |  |  |  | |\  \  |  | \   \       
                 \___/    |_|  |_| |__|  |__|  |_| \__\ |__|  \__/        
                                                                              
                      - O R C A' S   B I G   F R I E N D -                    
                                      &                                       
                       - I N T E G R A L  F E E D E R -                       
                                                                              
 v1 FN, 2020, v2 2021                                                         
------------------------------------------------------------------------------


Reading SHARK input file rf_mecn_opt_B3L_C6_D_B.SHARKINP.tmp ... ok
----------------------
SHARK INTEGRAL PACKAGE
----------------------

Number of atoms                             ...     24
Number of basis functions                   ...    744
Number of shells                            ...    264
Maximum angular momentum                    ...      3
Integral batch strategy                     ... SHARK/LIBINT Hybrid
RI-J (if used) integral strategy            ... SPLIT-RIJ (Revised 2003 algorithm where possible)
Printlevel                                  ...      1
Contraction scheme used                     ... SEGMENTED contraction
Coulomb Range Separation                    ... NOT USED
Exchange Range Separation                   ... NOT USED
Finite Nucleus Model                        ... NOT USED
Auxiliary Coulomb fitting basis             ... AVAILABLE
   # of basis functions in Aux-J            ...   1176
   # of shells in Aux-J                     ...    360
   Maximum angular momentum in Aux-J        ...      4
Auxiliary J/K fitting basis                 ... NOT available
Auxiliary Correlation fitting basis         ... NOT available
Auxiliary 'external' fitting basis          ... NOT available
Integral threshold                          ...     2.500000e-11
Primitive cut-off                           ...     2.500000e-12
Primitive pair pre-selection threshold      ...     2.500000e-12

Calculating pre-screening integrals         ... done (  0.1 sec) Dimension = 264
Organizing shell pair data                  ... done (  0.3 sec)
Shell pair information
Total number of shell pairs                 ...     34980
Shell pairs after pre-screening             ...     21476
Total number of primitive shell pairs       ...    115968
Primitive shell pairs kept                  ...     45760
          la=0 lb=0:   4014 shell pairs
          la=1 lb=0:   5835 shell pairs
          la=1 lb=1:   2046 shell pairs
          la=2 lb=0:   3192 shell pairs
          la=2 lb=1:   2368 shell pairs
          la=2 lb=2:    672 shell pairs
          la=3 lb=0:   1450 shell pairs
          la=3 lb=1:   1136 shell pairs
          la=3 lb=2:    615 shell pairs
          la=3 lb=3:    148 shell pairs

Calculating one electron integrals          ... done (  0.0 sec)
Calculating RI/J V-Matrix + Cholesky decomp.... done (  0.1 sec)
Calculating Nuclear repulsion               ... done (  0.0 sec) ENN=   2594.898969675816 Eh

SHARK setup successfully completed in   0.9 seconds

Maximum memory used throughout the entire GTOINT-calculation: 38.3 MB


           ************************************************************
           *        Program running with 20 parallel MPI-processes    *
           *              working on a common directory               *
           ************************************************************
-------------------------------------------------------------------------------
                                 ORCA SCF
-------------------------------------------------------------------------------

------------
SCF SETTINGS
------------
Hamiltonian:
 Density Functional     Method          .... DFT(GTOs)
 Exchange Functional    Exchange        .... B88
   X-Alpha parameter    XAlpha          ....  0.666667
   Becke's b parameter  XBeta           ....  0.004200
 Correlation Functional Correlation     .... LYP
 LDA part of GGA corr.  LDAOpt          .... VWN-5
 Gradients option       PostSCFGGA      .... off
 Hybrid DFT is turned on
   Fraction HF Exchange ScalHFX         ....  0.200000
   Scaling of DF-GGA-X  ScalDFX         ....  0.720000
   Scaling of DF-GGA-C  ScalDFC         ....  0.810000
   Scaling of DF-LDA-C  ScalLDAC        ....  1.000000
   Perturbative correction              ....  0.000000
   Density functional embedding theory  .... OFF
   NL short-range parameter             ....  4.800000
 RI-approximation to the Coulomb term is turned on
   Number of AuxJ basis functions       .... 1176
   RIJ-COSX (HFX calculated with COS-X)).... on


General Settings:
 Integral files         IntName         .... rf_mecn_opt_B3L_C6_D_B
 Hartree-Fock type      HFTyp           .... UHF
 Total Charge           Charge          ....   -1
 Multiplicity           Mult            ....    2
 Number of Electrons    NEL             ....  191
 Basis Dimension        Dim             ....  744
 Nuclear Repulsion      ENuc            ....   2594.8989696758 Eh

Convergence Acceleration:
 DIIS                   CNVDIIS         .... on
   Start iteration      DIISMaxIt       ....     0
   Startup error        DIISStart       ....  0.200000
   # of expansion vecs  DIISMaxEq       ....     5
   Bias factor          DIISBfac        ....   1.050
   Max. coefficient     DIISMaxC        ....  10.000
 Trust-Rad. Augm. Hess. CNVTRAH         .... auto
   Auto Start mean grad. ratio tolernc. ....  1.125000
   Auto Start start iteration           ....    20
   Auto Start num. interpolation iter.  ....    10
   Max. Number of Micro iterations      ....    16
   Max. Number of Macro iterations      .... Maxiter - #DIIS iter
   Number of Davidson start vectors     ....     2
   Converg. threshold I  (grad. norm)   ....   1.000e-05
   Converg. threshold II (energy diff.) ....   1.000e-08
   Grad. Scal. Fac. for Micro threshold ....   0.100
   Minimum threshold for Micro iter.    ....   0.010
   NR start threshold (gradient norm)   ....   0.001
   Initial trust radius                 ....   0.400
   Minimum AH scaling param. (alpha)    ....   1.000
   Maximum AH scaling param. (alpha)    .... 1000.000
   Orbital update algorithm             .... Taylor
   White noise on init. David. guess    .... on
   Maximum white noise                  ....   0.010
   Quad. conv. algorithm                .... NR
 SOSCF                  CNVSOSCF        .... off
 Level Shifting         CNVShift        .... on
   Level shift para.    LevelShift      ....    0.2500
   Turn off err/grad.   ShiftErr        ....    0.0000
 Zerner damping         CNVZerner       .... off
 Static damping         CNVDamp         .... on
   Fraction old density DampFac         ....    0.8500
   Max. Damping (<1)    DampMax         ....    0.9800
   Min. Damping (>=0)   DampMin         ....    0.0000
   Turn off err/grad.   DampErr         ....    0.0300
 Fernandez-Rico         CNVRico         .... off

SCF Procedure:
 Maximum # iterations   MaxIter         ....  1500
 SCF integral mode      SCFMode         .... Direct
   Integral package                     .... SHARK and LIBINT hybrid scheme
 Reset frequency        DirectResetFreq ....    20
 Integral Threshold     Thresh          ....  2.500e-11 Eh
 Primitive CutOff       TCut            ....  2.500e-12 Eh

Convergence Tolerance:
 Convergence Check Mode ConvCheckMode   .... Total+1el-Energy
 Convergence forced     ConvForced      .... 0
 Energy Change          TolE            ....  1.000e-08 Eh
 1-El. energy change                    ....  1.000e-05 Eh
 DIIS Error             TolErr          ....  5.000e-07


Diagonalization of the overlap matrix:
Smallest eigenvalue                        ... 6.410e-05
Time for diagonalization                   ...    0.149 sec
Threshold for overlap eigenvalues          ... 1.000e-08
Number of eigenvalues below threshold      ... 0
Time for construction of square roots      ...    0.082 sec
Total time needed                          ...    0.236 sec

Time for model grid setup =    0.230 sec

------------------------------
INITIAL GUESS: MODEL POTENTIAL
------------------------------
Loading Hartree-Fock densities                     ... done
Calculating cut-offs                               ... done
Initializing the effective Hamiltonian             ... done
Setting up the integral package (SHARK)            ... done
Starting the Coulomb interaction                   ... done (   0.2 sec)
Reading the grid                                   ... done
Mapping shells                                     ... done
Starting the XC term evaluation                    ... done (   0.1 sec)
  promolecular density results
     # of electrons  =    190.000891703
     EX              =   -198.089135777
     EC              =     -7.131256077
     EX+EC           =   -205.220391854
Transforming the Hamiltonian                       ... done (   0.1 sec)
Diagonalizing the Hamiltonian                      ... done (   0.1 sec)
Back transforming the eigenvectors                 ... done (   0.0 sec)
Now organizing SCF variables                       ... done
                      ------------------
                      INITIAL GUESS DONE (   0.9 sec)
                      ------------------
-------------------
DFT GRID GENERATION
-------------------

General Integration Accuracy     IntAcc      ... 4.388
Radial Grid Type                 RadialGrid  ... OptM3 with GC (2021)
Angular Grid (max. ang.)         AngularGrid ... 4 (Lebedev-302)
Angular grid pruning method      GridPruning ... 4 (adaptive)
Weight generation scheme         WeightScheme... Becke
Basis function cutoff            BFCut       ... 1.0000e-11
Integration weight cutoff        WCut        ... 1.0000e-14
Angular grids for H and He will be reduced by one unit
Partially contracted basis set               ... off
Rotationally invariant grid construction     ... off

Total number of grid points                  ...   145512
Total number of batches                      ...     2284
Average number of points per batch           ...       63
Average number of grid points per atom       ...     6063
Time for grid setup =    0.918 sec

--------------------
COSX GRID GENERATION
--------------------

GRIDX 1
-------
General Integration Accuracy     IntAcc      ... 3.816
Radial Grid Type                 RadialGrid  ... OptM3 with GC (2021)
Angular Grid (max. ang.)         AngularGrid ... 1 (Lebedev-50)
Angular grid pruning method      GridPruning ... 4 (adaptive)
Weight generation scheme         WeightScheme... Becke
Basis function cutoff            BFCut       ... 1.0000e-11
Integration weight cutoff        WCut        ... 1.0000e-14
Angular grids for H and He will be reduced by one unit
Partially contracted basis set               ... on
Rotationally invariant grid construction     ... off

Total number of grid points                  ...    18286
Total number of batches                      ...      298
Average number of points per batch           ...       61
Average number of grid points per atom       ...      762
UseSFitting                                  ... on

GRIDX 2
-------
General Integration Accuracy     IntAcc      ... 4.020
Radial Grid Type                 RadialGrid  ... OptM3 with GC (2021)
Angular Grid (max. ang.)         AngularGrid ... 2 (Lebedev-110)
Angular grid pruning method      GridPruning ... 4 (adaptive)
Weight generation scheme         WeightScheme... Becke
Basis function cutoff            BFCut       ... 1.0000e-11
Integration weight cutoff        WCut        ... 1.0000e-14
Angular grids for H and He will be reduced by one unit
Partially contracted basis set               ... on
Rotationally invariant grid construction     ... off

Total number of grid points                  ...    43376
Total number of batches                      ...      693
Average number of points per batch           ...       62
Average number of grid points per atom       ...     1807
UseSFitting                                  ... on

GRIDX 3
-------
General Integration Accuracy     IntAcc      ... 4.338
Radial Grid Type                 RadialGrid  ... OptM3 with GC (2021)
Angular Grid (max. ang.)         AngularGrid ... 3 (Lebedev-194)
Angular grid pruning method      GridPruning ... 4 (adaptive)
Weight generation scheme         WeightScheme... Becke
Basis function cutoff            BFCut       ... 1.0000e-11
Integration weight cutoff        WCut        ... 1.0000e-14
Angular grids for H and He will be reduced by one unit
Partially contracted basis set               ... on
Rotationally invariant grid construction     ... off

Total number of grid points                  ...    96110
Total number of batches                      ...     1514
Average number of points per batch           ...       63
Average number of grid points per atom       ...     4005
UseSFitting                                  ... on

Time for X-Grid setup             =    1.431 sec


--------------------
CPCM SOLVATION MODEL
--------------------
CPCM parameters:
  Epsilon                                         ...      35.6880
  Refrac                                          ...       1.3442
  Rsolv                                           ...       1.3000
  Surface type                                    ... GAUSSIAN VDW
  Epsilon function type                           ...         CPCM
Solvent:                                     ... ACETONITRILE
SMD-CDS solvent descriptors:
  Soln                                       ...    1.3442
  Soln25                                     ...    1.3416
  Sola                                       ...    0.0700
  Solb                                       ...    0.3200
  Solg                                       ...   41.2500
  Solc                                       ...    0.0000
  Solh                                       ...    0.0000
Radii:
 Radius for C  used is    3.4960 Bohr (=   1.8500 Ang.)
 Radius for O  used is    4.0969 Bohr (=   2.1680 Ang.)
 Radius for F  used is    3.2692 Bohr (=   1.7300 Ang.)
Calculating surface                               ...        done! (  0.0s)
GEPOL surface points                              ...         1279
GEPOL Volume                                      ...    2150.3089
GEPOL Surface-area                                ...    1121.8007
Calculating surface distance matrix               ...        done! (  0.0s)
Performing Cholesky decomposition & store         ...        done! (  0.1s)
Overall time for CPCM initialization              ...                 0.1s
--------------
SCF ITERATIONS
--------------
ITER       Energy         Delta-E        Max-DP      RMS-DP      [F,P]     Damp
               ***  Starting incremental Fock matrix formation  ***
  0  -1852.6173067443   0.000000000000 0.03959119  0.00020367  0.1694327 0.8500
  1  -1852.8003838683  -0.183077124040 0.06214973  0.00023148  0.1123657 0.8500
                               ***Turning on DIIS***
  2  -1852.8948337304  -0.094449862017 0.04798772  0.00016994  0.0648692 0.8500
  3  -1852.9466961355  -0.051862405120 0.01939618  0.00007925  0.0344608 0.8500
  4  -1852.9857855704  -0.039089434892 0.03297940  0.00026486  0.0241756 0.0000
  5  -1853.1827742679  -0.196988697533 0.03474968  0.00011675  0.0060554 0.0000
  6  -1853.1843764197  -0.001602151782 0.01409977  0.00004655  0.0052179 0.0000
  7  -1853.1848114781  -0.000435058399 0.00238256  0.00001136  0.0019116 0.0000
  8  -1853.1848631626  -0.000051684504 0.00168645  0.00000707  0.0006593 0.0000
               *** Restarting incremental Fock matrix formation ***
                                   *** Resetting DIIS ***
  9  -1853.1848925190  -0.000029356432 0.00054232  0.00000321  0.0004868 0.0000
 10  -1853.1848945817  -0.000002062624 0.00024711  0.00000175  0.0007050 0.0000
 11  -1853.1848984333  -0.000003851633 0.00010462  0.00000102  0.0001025 0.0000
 12  -1853.1848991093  -0.000000676058 0.00006626  0.00000060  0.0000917 0.0000
 13  -1853.1848994219  -0.000000312577 0.00004207  0.00000033  0.0000409 0.0000
 14  -1853.1848995279  -0.000000105978 0.00002443  0.00000021  0.0000209 0.0000
 15  -1853.1848995807  -0.000000052782 0.00002078  0.00000015  0.0000159 0.0000
 16  -1853.1848996110  -0.000000030300 0.00001571  0.00000012  0.0000120 0.0000
 17  -1853.1848996141  -0.000000003114 0.00001113  0.00000008  0.0000090 0.0000
 18  -1853.1848996412  -0.000000027077 0.00001155  0.00000008  0.0000068 0.0000
 19  -1853.1848996394   0.000000001772 0.00000662  0.00000006  0.0000050 0.0000
 20  -1853.1848996677  -0.000000028257 0.00000923  0.00000006  0.0000037 0.0000
                 **** Energy Check signals convergence ****

               *****************************************************
               *                     SUCCESS                       *
               *           SCF CONVERGED AFTER  21 CYCLES          *
               *****************************************************

Old exchange energy                            =    -39.731119236 Eh
New exchange energy                            =    -39.731136084 Eh
Exchange energy change after final integration =     -0.000016848 Eh
Total energy after final integration           =  -1853.184916508 Eh
Final COS-X integration done in                =    11.126 sec

SMD CDS free energy correction energy :                 3.61162     Kcal/mol
Total Energy after SMD CDS correction =             -1853.179161030 Eh

----------------
TOTAL SCF ENERGY
----------------

Total Energy       :        -1853.17916103 Eh          -50427.56866 eV

Components:
Nuclear Repulsion  :         2594.89896968 Eh           70610.79075 eV
Electronic Energy  :        -4448.07813071 Eh         -121038.35941 eV
One Electron Energy:        -7764.05771406 Eh         -211270.75120 eV
Two Electron Energy:         3315.97958336 Eh           90232.39179 eV
Max COSX asymmetry :            0.00000063 Eh               0.00002 eV
CPCM Dielectric    :           -0.08444131 Eh              -2.29776 eV
SMD CDS (Gcds)     :            0.00575548 Eh               0.15661 eV

Virial components:
Potential Energy   :        -3699.02325723 Eh         -100655.54006 eV
Kinetic Energy     :         1845.84409620 Eh           50227.97140 eV
Virial Ratio       :            2.00397383


DFT components:
N(Alpha)           :       95.999982091019 electrons
N(Beta)            :       94.999967712646 electrons
N(Total)           :      190.999949803665 electrons
E(X)               :     -158.393203027640 Eh       
E(C)               :       -8.363603073169 Eh       
E(XC)              :     -166.756806100809 Eh       
DFET-embed. en.    :        0.000000000000 Eh       
CPCM Solvation Model Properties:
Surface-charge          :            0.98917999
Charge-correction       :           -0.00104422 Eh              -0.02841 eV
Free-energy (cav+disp)  :            0.00575548 Eh               0.15661 eV

---------------
SCF CONVERGENCE
---------------

  Last Energy change         ...    7.4076e-09  Tolerance :   1.0000e-08
  Last MAX-Density change    ...    0.0000e+00  Tolerance :   1.0000e-07
  Last RMS-Density change    ...    0.0000e+00  Tolerance :   5.0000e-09
  Last DIIS Error            ...    2.7294e-06  Tolerance :   5.0000e-07

             **** THE GBW FILE WAS UPDATED (rf_mecn_opt_B3L_C6_D_B.gbw) ****
             **** DENSITY rf_mecn_opt_B3L_C6_D_B.scfp WAS UPDATED ****
             **** ENERGY FILE WAS UPDATED (rf_mecn_opt_B3L_C6_D_B.en.tmp) ****
----------------------
UHF SPIN CONTAMINATION
----------------------

Warning: in a DFT calculation there is little theoretical justification to 
         calculate <S**2> as in Hartree-Fock theory. We will do it anyways
         but you should keep in mind that the values have only limited relevance

Expectation value of <S**2>     :     0.753028
Ideal value S*(S+1) for S=0.5   :     0.750000
Deviation                       :     0.003028

             **** THE GBW FILE WAS UPDATED (rf_mecn_opt_B3L_C6_D_B.gbw) ****
             **** DENSITY rf_mecn_opt_B3L_C6_D_B.scfp WAS UPDATED ****
----------------
ORBITAL ENERGIES
----------------
                 SPIN UP ORBITALS
  NO   OCC          E(Eh)            E(eV) 
   0   1.0000     -24.747773      -673.4211 
   1   1.0000     -24.742283      -673.2717 
   2   1.0000     -24.741879      -673.2608 
   3   1.0000     -24.739999      -673.2096 
   4   1.0000     -24.738431      -673.1669 
   5   1.0000     -24.737706      -673.1472 
   6   1.0000     -24.737093      -673.1305 
   7   1.0000     -24.734113      -673.0494 
   8   1.0000     -24.733186      -673.0242 
   9   1.0000     -24.731746      -672.9850 
  10   1.0000     -24.724992      -672.8012 
  11   1.0000     -24.720848      -672.6885 
  12   1.0000     -24.704238      -672.2365 
  13   1.0000     -24.701408      -672.1595 
  14   1.0000     -19.086417      -519.3678 
  15   1.0000     -19.084850      -519.3252 
  16   1.0000     -10.457057      -284.5510 
  17   1.0000     -10.404590      -283.1233 
  18   1.0000     -10.402314      -283.0614 
  19   1.0000     -10.395986      -282.8892 
  20   1.0000     -10.385892      -282.6145 
  21   1.0000     -10.362325      -281.9732 
  22   1.0000     -10.340722      -281.3853 
  23   1.0000     -10.294696      -280.1329 
  24   1.0000      -1.347028       -36.6545 
  25   1.0000      -1.318067       -35.8664 
  26   1.0000      -1.306973       -35.5645 
  27   1.0000      -1.297156       -35.2974 
  28   1.0000      -1.288745       -35.0685 
  29   1.0000      -1.279878       -34.8272 
  30   1.0000      -1.259714       -34.2786 
  31   1.0000      -1.257582       -34.2205 
  32   1.0000      -1.255995       -34.1774 
  33   1.0000      -1.251409       -34.0526 
  34   1.0000      -1.246794       -33.9270 
  35   1.0000      -1.241528       -33.7837 
  36   1.0000      -1.231825       -33.5197 
  37   1.0000      -1.204418       -32.7739 
  38   1.0000      -0.960297       -26.1310 
  39   1.0000      -0.901309       -24.5259 
  40   1.0000      -0.843640       -22.9566 
  41   1.0000      -0.822196       -22.3731 
  42   1.0000      -0.791366       -21.5342 
  43   1.0000      -0.754649       -20.5350 
  44   1.0000      -0.710845       -19.3431 
  45   1.0000      -0.681332       -18.5400 
  46   1.0000      -0.666801       -18.1446 
  47   1.0000      -0.639293       -17.3960 
  48   1.0000      -0.632543       -17.2124 
  49   1.0000      -0.631510       -17.1842 
  50   1.0000      -0.623414       -16.9640 
  51   1.0000      -0.617995       -16.8165 
  52   1.0000      -0.616639       -16.7796 
  53   1.0000      -0.601878       -16.3779 
  54   1.0000      -0.594694       -16.1825 
  55   1.0000      -0.591911       -16.1067 
  56   1.0000      -0.584005       -15.8916 
  57   1.0000      -0.578648       -15.7458 
  58   1.0000      -0.571613       -15.5544 
  59   1.0000      -0.564566       -15.3626 
  60   1.0000      -0.550270       -14.9736 
  61   1.0000      -0.525640       -14.3034 
  62   1.0000      -0.509020       -13.8511 
  63   1.0000      -0.504674       -13.7329 
  64   1.0000      -0.499213       -13.5843 
  65   1.0000      -0.496920       -13.5219 
  66   1.0000      -0.496481       -13.5099 
  67   1.0000      -0.483884       -13.1671 
  68   1.0000      -0.482073       -13.1179 
  69   1.0000      -0.479030       -13.0351 
  70   1.0000      -0.478515       -13.0210 
  71   1.0000      -0.470247       -12.7961 
  72   1.0000      -0.462566       -12.5871 
  73   1.0000      -0.461828       -12.5670 
  74   1.0000      -0.460208       -12.5229 
  75   1.0000      -0.459581       -12.5058 
  76   1.0000      -0.455236       -12.3876 
  77   1.0000      -0.454328       -12.3629 
  78   1.0000      -0.446816       -12.1585 
  79   1.0000      -0.443716       -12.0741 
  80   1.0000      -0.440338       -11.9822 
  81   1.0000      -0.437391       -11.9020 
  82   1.0000      -0.432829       -11.7779 
  83   1.0000      -0.431576       -11.7438 
  84   1.0000      -0.425546       -11.5797 
  85   1.0000      -0.415133       -11.2964 
  86   1.0000      -0.413634       -11.2555 
  87   1.0000      -0.397206       -10.8085 
  88   1.0000      -0.387665       -10.5489 
  89   1.0000      -0.373410       -10.1610 
  90   1.0000      -0.347943        -9.4680 
  91   1.0000      -0.343367        -9.3435 
  92   1.0000      -0.302835        -8.2406 
  93   1.0000      -0.249091        -6.7781 
  94   1.0000      -0.245088        -6.6692 
  95   1.0000      -0.242680        -6.6037 
  96   0.0000      -0.020465        -0.5569 
  97   0.0000      -0.005551        -0.1511 
  98   0.0000       0.028574         0.7775 
  99   0.0000       0.042056         1.1444 
 100   0.0000       0.062364         1.6970 
 101   0.0000       0.084430         2.2975 
 102   0.0000       0.096193         2.6176 
 103   0.0000       0.098852         2.6899 
 104   0.0000       0.107396         2.9224 
 105   0.0000       0.128676         3.5015 
 106   0.0000       0.130570         3.5530 
 107   0.0000       0.141336         3.8460 
 108   0.0000       0.151542         4.1237 
 109   0.0000       0.155048         4.2191 
 110   0.0000       0.168652         4.5893 
 111   0.0000       0.174440         4.7467 
 112   0.0000       0.187242         5.0951 
 113   0.0000       0.195522         5.3204 
 114   0.0000       0.199994         5.4421 
 115   0.0000       0.202768         5.5176 
 116   0.0000       0.211142         5.7455 
 117   0.0000       0.213338         5.8052 
 118   0.0000       0.219682         5.9778 
 119   0.0000       0.221491         6.0271 
 120   0.0000       0.223333         6.0772 
 121   0.0000       0.228597         6.2204 
 122   0.0000       0.231529         6.3002 
 123   0.0000       0.243517         6.6264 
 124   0.0000       0.246775         6.7151 
 125   0.0000       0.248668         6.7666 
 126   0.0000       0.257229         6.9995 
 127   0.0000       0.260580         7.0907 
 128   0.0000       0.272145         7.4054 
 129   0.0000       0.273175         7.4335 
 130   0.0000       0.283111         7.7038 
 131   0.0000       0.287089         7.8121 
 132   0.0000       0.293684         7.9916 
 133   0.0000       0.300350         8.1729 
 134   0.0000       0.306372         8.3368 
 135   0.0000       0.312021         8.4905 
 136   0.0000       0.315146         8.5756 
 137   0.0000       0.330659         8.9977 
 138   0.0000       0.336578         9.1588 
 139   0.0000       0.339656         9.2425 
 140   0.0000       0.345076         9.3900 
 141   0.0000       0.351416         9.5625 
 142   0.0000       0.375037        10.2053 
 143   0.0000       0.385914        10.5013 
 144   0.0000       0.395531        10.7629 
 145   0.0000       0.407000        11.0750 
 146   0.0000       0.418970        11.4007 
 147   0.0000       0.426617        11.6088 
 148   0.0000       0.433258        11.7896 
 149   0.0000       0.437313        11.8999 
 150   0.0000       0.443814        12.0768 
 151   0.0000       0.455493        12.3946 
 152   0.0000       0.465025        12.6540 
 153   0.0000       0.469694        12.7810 
 154   0.0000       0.471647        12.8342 
 155   0.0000       0.478451        13.0193 
 156   0.0000       0.487306        13.2603 
 157   0.0000       0.493816        13.4374 
 158   0.0000       0.504382        13.7249 
 159   0.0000       0.509478        13.8636 
 160   0.0000       0.518905        14.1201 
 161   0.0000       0.523855        14.2548 
 162   0.0000       0.531218        14.4552 
 163   0.0000       0.534123        14.5342 
 164   0.0000       0.547027        14.8854 
 165   0.0000       0.561519        15.2797 
 166   0.0000       0.571125        15.5411 
 167   0.0000       0.581868        15.8334 
 168   0.0000       0.586812        15.9680 
 169   0.0000       0.611989        16.6531 
 170   0.0000       0.627225        17.0677 
 171   0.0000       0.634645        17.2696 
 172   0.0000       0.640575        17.4309 
 173   0.0000       0.647464        17.6184 
 174   0.0000       0.664051        18.0698 
 175   0.0000       0.671821        18.2812 
 176   0.0000       0.674745        18.3608 
 177   0.0000       0.683416        18.5967 
 178   0.0000       0.687640        18.7116 
 179   0.0000       0.708058        19.2672 
 180   0.0000       0.713038        19.4028 
 181   0.0000       0.717093        19.5131 
 182   0.0000       0.723665        19.6919 
 183   0.0000       0.725676        19.7466 
 184   0.0000       0.732225        19.9248 
 185   0.0000       0.740558        20.1516 
 186   0.0000       0.749374        20.3915 
 187   0.0000       0.755221        20.5506 
 188   0.0000       0.763799        20.7840 
 189   0.0000       0.768759        20.9190 
 190   0.0000       0.772000        21.0072 
 191   0.0000       0.780669        21.2431 
 192   0.0000       0.796132        21.6639 
 193   0.0000       0.797757        21.7081 
 194   0.0000       0.811763        22.0892 
 195   0.0000       0.813306        22.1312 
 196   0.0000       0.819923        22.3112 
 197   0.0000       0.825309        22.4578 
 198   0.0000       0.838313        22.8116 
 199   0.0000       0.847691        23.0668 
 200   0.0000       0.851027        23.1576 
 201   0.0000       0.866395        23.5758 
 202   0.0000       0.871879        23.7250 
 203   0.0000       0.881114        23.9763 
 204   0.0000       0.889362        24.2008 
 205   0.0000       0.903066        24.5737 
 206   0.0000       0.913006        24.8442 
 207   0.0000       0.918818        25.0023 
 208   0.0000       0.920999        25.0617 
 209   0.0000       0.927095        25.2275 
 210   0.0000       0.942152        25.6373 
 211   0.0000       0.946494        25.7554 
 212   0.0000       0.959930        26.1210 
 213   0.0000       0.967007        26.3136 
 214   0.0000       0.979682        26.6585 
 215   0.0000       0.990262        26.9464 
 216   0.0000       1.001657        27.2565 
 217   0.0000       1.006219        27.3806 
 218   0.0000       1.015781        27.6408 
 219   0.0000       1.017528        27.6884 
 220   0.0000       1.036142        28.1948 
 221   0.0000       1.051961        28.6253 
 222   0.0000       1.070412        29.1274 
 223   0.0000       1.077342        29.3160 
 224   0.0000       1.086672        29.5698 
 225   0.0000       1.093673        29.7603 
 226   0.0000       1.099516        29.9193 
 227   0.0000       1.106171        30.1005 
 228   0.0000       1.121100        30.5067 
 229   0.0000       1.127064        30.6690 
 230   0.0000       1.136799        30.9339 
 231   0.0000       1.140044        31.0222 
 232   0.0000       1.152541        31.3622 
 233   0.0000       1.159563        31.5533 
 234   0.0000       1.172605        31.9082 
 235   0.0000       1.179414        32.0935 
 236   0.0000       1.188997        32.3542 
 237   0.0000       1.199351        32.6360 
 238   0.0000       1.210780        32.9470 
 239   0.0000       1.218342        33.1528 
 240   0.0000       1.225146        33.3379 
 241   0.0000       1.245979        33.9048 
 242   0.0000       1.249779        34.0082 
 243   0.0000       1.265099        34.4251 
 244   0.0000       1.277157        34.7532 
 245   0.0000       1.285381        34.9770 
 246   0.0000       1.291762        35.1506 
 247   0.0000       1.298708        35.3396 
 248   0.0000       1.313271        35.7359 
 249   0.0000       1.331071        36.2203 
 250   0.0000       1.345256        36.6063 
 251   0.0000       1.364831        37.1390 
 252   0.0000       1.385425        37.6993 
 253   0.0000       1.403794        38.1992 
 254   0.0000       1.410877        38.3919 
 255   0.0000       1.447451        39.3872 
 256   0.0000       1.466003        39.8920 
 257   0.0000       1.468877        39.9702 
 258   0.0000       1.487592        40.4794 
 259   0.0000       1.505833        40.9758 
 260   0.0000       1.535772        41.7905 
 261   0.0000       1.562157        42.5085 
 262   0.0000       1.568090        42.6699 
 263   0.0000       1.588419        43.2231 
 264   0.0000       1.609666        43.8012 
 265   0.0000       1.627308        44.2813 
 266   0.0000       1.642119        44.6843 
 267   0.0000       1.668933        45.4140 
 268   0.0000       1.681969        45.7687 
 269   0.0000       1.701446        46.2987 
 270   0.0000       1.705756        46.4160 
 271   0.0000       1.732377        47.1404 
 272   0.0000       1.752020        47.6749 
 273   0.0000       1.765620        48.0449 
 274   0.0000       1.775332        48.3092 
 275   0.0000       1.792604        48.7792 
 276   0.0000       1.806636        49.1611 
 277   0.0000       1.815007        49.3889 
 278   0.0000       1.818084        49.4726 
 279   0.0000       1.837998        50.0145 
 280   0.0000       1.853793        50.4443 
 281   0.0000       1.858657        50.5766 
 282   0.0000       1.881829        51.2072 
 283   0.0000       1.896280        51.6004 
 284   0.0000       1.899749        51.6948 
 285   0.0000       1.904102        51.8132 
 286   0.0000       1.909532        51.9610 
 287   0.0000       1.915714        52.1292 
 288   0.0000       1.925620        52.3988 
 289   0.0000       1.930550        52.5329 
 290   0.0000       1.936596        52.6974 
 291   0.0000       1.946579        52.9691 
 292   0.0000       1.955262        53.2054 
 293   0.0000       1.960361        53.3441 
 294   0.0000       1.969391        53.5898 
 295   0.0000       1.983598        53.9764 
 296   0.0000       2.008886        54.6646 
 297   0.0000       2.011916        54.7470 
 298   0.0000       2.030618        55.2559 
 299   0.0000       2.043522        55.6071 
 300   0.0000       2.050101        55.7861 
 301   0.0000       2.055996        55.9465 
 302   0.0000       2.064798        56.1860 
 303   0.0000       2.071848        56.3779 
 304   0.0000       2.073271        56.4166 
 305   0.0000       2.077730        56.5379 
 306   0.0000       2.079499        56.5860 
 307   0.0000       2.091896        56.9234 
 308   0.0000       2.095447        57.0200 
 309   0.0000       2.107347        57.3438 
 310   0.0000       2.115530        57.5665 
 311   0.0000       2.118842        57.6566 
 312   0.0000       2.123745        57.7901 
 313   0.0000       2.131925        58.0126 
 314   0.0000       2.143333        58.3231 
 315   0.0000       2.152762        58.5796 
 316   0.0000       2.156379        58.6781 
 317   0.0000       2.170872        59.0724 
 318   0.0000       2.176653        59.2297 
 319   0.0000       2.184580        59.4455 
 320   0.0000       2.198166        59.8151 
 321   0.0000       2.228819        60.6493 
 322   0.0000       2.239398        60.9371 
 323   0.0000       2.251493        61.2662 
 324   0.0000       2.263333        61.5884 
 325   0.0000       2.276838        61.9559 
 326   0.0000       2.284183        62.1558 
 327   0.0000       2.290934        62.3395 
 328   0.0000       2.310313        62.8668 
 329   0.0000       2.332598        63.4732 
 330   0.0000       2.339192        63.6526 
 331   0.0000       2.357148        64.1413 
 332   0.0000       2.367723        64.4290 
 333   0.0000       2.375868        64.6507 
 334   0.0000       2.383027        64.8455 
 335   0.0000       2.408304        65.5333 
 336   0.0000       2.410777        65.6006 
 337   0.0000       2.421522        65.8930 
 338   0.0000       2.432750        66.1985 
 339   0.0000       2.438639        66.3588 
 340   0.0000       2.451027        66.6958 
 341   0.0000       2.459354        66.9224 
 342   0.0000       2.462260        67.0015 
 343   0.0000       2.466663        67.1213 
 344   0.0000       2.473709        67.3130 
 345   0.0000       2.479052        67.4584 
 346   0.0000       2.484809        67.6151 
 347   0.0000       2.491485        67.7968 
 348   0.0000       2.512865        68.3785 
 349   0.0000       2.525815        68.7309 
 350   0.0000       2.529194        68.8229 
 351   0.0000       2.548059        69.3362 
 352   0.0000       2.556878        69.5762 
 353   0.0000       2.569167        69.9106 
 354   0.0000       2.585628        70.3585 
 355   0.0000       2.598509        70.7090 
 356   0.0000       2.628242        71.5181 
 357   0.0000       2.636854        71.7524 
 358   0.0000       2.639261        71.8179 
 359   0.0000       2.656718        72.2930 
 360   0.0000       2.667300        72.5809 
 361   0.0000       2.686298        73.0979 
 362   0.0000       2.716383        73.9165 
 363   0.0000       2.750786        74.8527 
 364   0.0000       2.761695        75.1496 
 365   0.0000       2.780138        75.6514 
 366   0.0000       2.812302        76.5266 
 367   0.0000       2.828772        76.9748 
 368   0.0000       2.833256        77.0968 
 369   0.0000       2.855041        77.6896 
 370   0.0000       2.873959        78.2044 
 371   0.0000       2.886089        78.5345 
 372   0.0000       2.900530        78.9274 
 373   0.0000       2.914390        79.3046 
 374   0.0000       2.918185        79.4078 
 375   0.0000       2.923494        79.5523 
 376   0.0000       2.936277        79.9002 
 377   0.0000       2.946119        80.1680 
 378   0.0000       2.960919        80.5707 
 379   0.0000       2.964544        80.6693 
 380   0.0000       2.967144        80.7401 
 381   0.0000       2.975319        80.9625 
 382   0.0000       2.987765        81.3012 
 383   0.0000       3.002290        81.6965 
 384   0.0000       3.008328        81.8608 
 385   0.0000       3.015504        82.0560 
 386   0.0000       3.025338        82.3236 
 387   0.0000       3.033983        82.5589 
 388   0.0000       3.040499        82.7362 
 389   0.0000       3.048467        82.9530 
 390   0.0000       3.061806        83.3160 
 391   0.0000       3.067772        83.4783 
 392   0.0000       3.072279        83.6010 
 393   0.0000       3.077479        83.7425 
 394   0.0000       3.083187        83.8978 
 395   0.0000       3.092427        84.1492 
 396   0.0000       3.098841        84.3237 
 397   0.0000       3.112744        84.7021 
 398   0.0000       3.116946        84.8164 
 399   0.0000       3.122217        84.9598 
 400   0.0000       3.126571        85.0783 
 401   0.0000       3.138543        85.4041 
 402   0.0000       3.145518        85.5939 
 403   0.0000       3.153085        85.7998 
 404   0.0000       3.160526        86.0023 
 405   0.0000       3.162810        86.0644 
 406   0.0000       3.173336        86.3509 
 407   0.0000       3.175106        86.3990 
 408   0.0000       3.183886        86.6379 
 409   0.0000       3.190562        86.8196 
 410   0.0000       3.202582        87.1467 
 411   0.0000       3.208115        87.2972 
 412   0.0000       3.222328        87.6840 
 413   0.0000       3.228266        87.8456 
 414   0.0000       3.233741        87.9946 
 415   0.0000       3.235349        88.0383 
 416   0.0000       3.250665        88.4551 
 417   0.0000       3.256336        88.6094 
 418   0.0000       3.264690        88.8367 
 419   0.0000       3.278264        89.2061 
 420   0.0000       3.280949        89.2792 
 421   0.0000       3.295049        89.6629 
 422   0.0000       3.304434        89.9182 
 423   0.0000       3.306334        89.9699 
 424   0.0000       3.311429        90.1086 
 425   0.0000       3.319194        90.3199 
 426   0.0000       3.339087        90.8612 
 427   0.0000       3.346243        91.0559 
 428   0.0000       3.356455        91.3338 
 429   0.0000       3.367676        91.6391 
 430   0.0000       3.386629        92.1549 
 431   0.0000       3.393707        92.3475 
 432   0.0000       3.412221        92.8512 
 433   0.0000       3.424880        93.1957 
 434   0.0000       3.436984        93.5251 
 435   0.0000       3.461160        94.1830 
 436   0.0000       3.471394        94.4614 
 437   0.0000       3.493960        95.0755 
 438   0.0000       3.501412        95.2783 
 439   0.0000       3.517352        95.7120 
 440   0.0000       3.536313        96.2280 
 441   0.0000       3.558520        96.8322 
 442   0.0000       3.584989        97.5525 
 443   0.0000       3.589230        97.6679 
 444   0.0000       3.606550        98.1392 
 445   0.0000       3.611762        98.2810 
 446   0.0000       3.624924        98.6392 
 447   0.0000       3.646518        99.2268 
 448   0.0000       3.660496        99.6072 
 449   0.0000       3.697100       100.6032 
 450   0.0000       3.705891       100.8424 
 451   0.0000       3.722435       101.2926 
 452   0.0000       3.727551       101.4318 
 453   0.0000       3.736282       101.6694 
 454   0.0000       3.757274       102.2406 
 455   0.0000       3.767597       102.5215 
 456   0.0000       3.777096       102.7800 
 457   0.0000       3.803036       103.4859 
 458   0.0000       3.811101       103.7053 
 459   0.0000       3.826171       104.1154 
 460   0.0000       3.833325       104.3101 
 461   0.0000       3.843717       104.5928 
 462   0.0000       3.854644       104.8902 
 463   0.0000       3.866814       105.2214 
 464   0.0000       3.881604       105.6238 
 465   0.0000       3.887427       105.7823 
 466   0.0000       3.897042       106.0439 
 467   0.0000       3.901858       106.1750 
 468   0.0000       3.912140       106.4548 
 469   0.0000       3.922504       106.7367 
 470   0.0000       3.937934       107.1566 
 471   0.0000       3.941583       107.2559 
 472   0.0000       3.969426       108.0136 
 473   0.0000       3.975454       108.1776 
 474   0.0000       3.988330       108.5280 
 475   0.0000       3.993497       108.6686 
 476   0.0000       3.998967       108.8174 
 477   0.0000       4.015801       109.2755 
 478   0.0000       4.022323       109.4530 
 479   0.0000       4.025239       109.5323 
 480   0.0000       4.036574       109.8408 
 481   0.0000       4.052261       110.2676 
 482   0.0000       4.057696       110.4155 
 483   0.0000       4.064583       110.6029 
 484   0.0000       4.084802       111.1531 
 485   0.0000       4.095239       111.4371 
 486   0.0000       4.104249       111.6823 
 487   0.0000       4.111717       111.8855 
 488   0.0000       4.118633       112.0737 
 489   0.0000       4.126021       112.2748 
 490   0.0000       4.138442       112.6127 
 491   0.0000       4.148235       112.8792 
 492   0.0000       4.152224       112.9878 
 493   0.0000       4.163870       113.3047 
 494   0.0000       4.175753       113.6280 
 495   0.0000       4.188339       113.9705 
 496   0.0000       4.206036       114.4521 
 497   0.0000       4.224140       114.9447 
 498   0.0000       4.243296       115.4659 
 499   0.0000       4.252682       115.7213 
 500   0.0000       4.289006       116.7098 
 501   0.0000       4.301409       117.0473 
 502   0.0000       4.322981       117.6343 
 503   0.0000       4.345432       118.2452 
 504   0.0000       4.401511       119.7712 
 505   0.0000       4.554444       123.9327 
 506   0.0000       4.583143       124.7137 
 507   0.0000       4.612374       125.5091 
 508   0.0000       4.661358       126.8420 
 509   0.0000       4.739414       128.9660 
 510   0.0000       4.753724       129.3554 
 511   0.0000       4.812390       130.9518 
 512   0.0000       4.923766       133.9825 
 513   0.0000       4.955528       134.8468 
 514   0.0000       4.997967       136.0016 
 515   0.0000       5.129725       139.5869 
 516   0.0000       5.165709       140.5661 
 517   0.0000       5.183143       141.0405 
 518   0.0000       5.203351       141.5904 
 519   0.0000       5.205907       141.6599 
 520   0.0000       5.209492       141.7575 
 521   0.0000       5.211343       141.8078 
 522   0.0000       5.241608       142.6314 
 523   0.0000       5.257004       143.0504 
 524   0.0000       5.283057       143.7593 
 525   0.0000       5.293404       144.0408 
 526   0.0000       5.317957       144.7090 
 527   0.0000       5.321817       144.8140 
 528   0.0000       5.335023       145.1734 
 529   0.0000       5.377752       146.3361 
 530   0.0000       5.416535       147.3914 
 531   0.0000       5.454801       148.4327 
 532   0.0000       5.493087       149.4745 
 533   0.0000       5.509711       149.9269 
 534   0.0000       5.539115       150.7270 
 535   0.0000       5.644434       153.5928 
 536   0.0000       5.711491       155.4176 
 537   0.0000       5.744192       156.3074 
 538   0.0000       5.850951       159.2125 
 539   0.0000       5.917265       161.0170 
 540   0.0000       6.164677       167.7494 
 541   0.0000       6.228792       169.4941 
 542   0.0000       6.339797       172.5146 
 543   0.0000       6.381396       173.6466 
 544   0.0000       6.414985       174.5606 
 545   0.0000       6.445154       175.3816 
 546   0.0000       6.728322       183.0870 
 547   0.0000       6.764924       184.0829 
 548   0.0000       6.780906       184.5178 
 549   0.0000       6.802902       185.1164 
 550   0.0000       6.805888       185.1976 
 551   0.0000       6.807784       185.2492 
 552   0.0000       6.808154       185.2593 
 553   0.0000       6.808653       185.2729 
 554   0.0000       6.811205       185.3423 
 555   0.0000       6.813057       185.3927 
 556   0.0000       6.813602       185.4075 
 557   0.0000       6.814806       185.4403 
 558   0.0000       6.815588       185.4616 
 559   0.0000       6.816508       185.4866 
 560   0.0000       6.818935       185.5527 
 561   0.0000       6.820538       185.5963 
 562   0.0000       6.821421       185.6203 
 563   0.0000       6.822452       185.6484 
 564   0.0000       6.823679       185.6817 
 565   0.0000       6.826091       185.7474 
 566   0.0000       6.828594       185.8155 
 567   0.0000       6.830240       185.8603 
 568   0.0000       6.830932       185.8791 
 569   0.0000       6.831288       185.8888 
 570   0.0000       6.833121       185.9387 
 571   0.0000       6.835119       185.9930 
 572   0.0000       6.836092       186.0195 
 573   0.0000       6.838059       186.0731 
 574   0.0000       6.839979       186.1253 
 575   0.0000       6.841858       186.1764 
 576   0.0000       6.842253       186.1872 
 577   0.0000       6.844994       186.2617 
 578   0.0000       6.847932       186.3417 
 579   0.0000       6.848785       186.3649 
 580   0.0000       6.853103       186.4824 
 581   0.0000       6.854723       186.5265 
 582   0.0000       6.855536       186.5486 
 583   0.0000       6.857068       186.5903 
 584   0.0000       6.861540       186.7120 
 585   0.0000       6.865349       186.8156 
 586   0.0000       6.867449       186.8728 
 587   0.0000       6.875695       187.0972 
 588   0.0000       6.882585       187.2847 
 589   0.0000       6.893122       187.5714 
 590   0.0000       6.904153       187.8716 
 591   0.0000       6.915748       188.1871 
 592   0.0000       6.919423       188.2871 
 593   0.0000       6.926862       188.4895 
 594   0.0000       6.943753       188.9491 
 595   0.0000       6.950933       189.1445 
 596   0.0000       6.954628       189.2451 
 597   0.0000       6.957641       189.3270 
 598   0.0000       6.958951       189.3627 
 599   0.0000       6.960201       189.3967 
 600   0.0000       6.963951       189.4988 
 601   0.0000       6.978317       189.8897 
 602   0.0000       6.999082       190.4547 
 603   0.0000       7.005873       190.6395 
 604   0.0000       7.010355       190.7614 
 605   0.0000       7.012175       190.8110 
 606   0.0000       7.014640       190.8781 
 607   0.0000       7.021211       191.0569 
[...]
      dxy     :     0.000001
      f0      :     0.000000  f :     0.000001
      f+1     :     0.000000
      f-1     :     0.000000
      f+2     :     0.000000
      f-2     :     0.000000
      f+3     :    -0.000000
      f-3     :     0.000000
  2 O s       :     0.000002  s :     0.000002
      pz      :     0.000062  p :     0.000086
      px      :    -0.000048
      py      :     0.000072
      dz2     :     0.000000  d :     0.000001
      dxz     :    -0.000000
      dyz     :     0.000001
      dx2y2   :    -0.000001
      dxy     :     0.000001
      f0      :     0.000000  f :     0.000000
      f+1     :    -0.000000
      f-1     :    -0.000000
      f+2     :     0.000000
      f-2     :     0.000000
      f+3     :     0.000000
      f-3     :    -0.000000
  3 C s       :     0.000017  s :     0.000017
      pz      :    -0.000014  p :     0.000763
      px      :     0.000610
      py      :     0.000167
      dz2     :    -0.000005  d :     0.000131
      dxz     :     0.000051
      dyz     :     0.000003
      dx2y2   :     0.000081
      dxy     :     0.000000
      f0      :    -0.000000  f :     0.000021
      f+1     :    -0.000000
      f-1     :     0.000002
      f+2     :     0.000004
      f-2     :     0.000004
      f+3     :     0.000012
      f-3     :    -0.000001
  4 C s       :     0.000068  s :     0.000068
      pz      :     0.000216  p :     0.001440
      px      :     0.000945
      py      :     0.000280
      dz2     :     0.000016  d :     0.000714
      dxz     :     0.000003
      dyz     :     0.000025
      dx2y2   :     0.000405
      dxy     :     0.000264
      f0      :    -0.000000  f :     0.000103
      f+1     :     0.000008
      f-1     :    -0.000000
      f+2     :     0.000016
      f-2     :     0.000034
      f+3     :     0.000043
      f-3     :     0.000003
  5 C s       :     0.001502  s :     0.001502
      pz      :     0.000787  p :     0.010399
      px      :     0.005144
      py      :     0.004468
      dz2     :    -0.000048  d :     0.000577
      dxz     :     0.000048
      dyz     :    -0.000007
      dx2y2   :     0.000863
      dxy     :    -0.000279
      f0      :     0.000096  f :     0.000213
      f+1     :     0.000006
      f-1     :    -0.000012
      f+2     :     0.000003
      f-2     :     0.000006
      f+3     :     0.000087
      f-3     :     0.000025
  6 C s       :    -0.002670  s :    -0.002670
      pz      :     0.005273  p :    -0.001715
      px      :    -0.009714
      py      :     0.002726
      dz2     :     0.000822  d :     0.056822
      dxz     :     0.017613
      dyz     :     0.003060
      dx2y2   :     0.014705
      dxy     :     0.020621
      f0      :     0.001052  f :     0.009262
      f+1     :     0.001231
      f-1     :     0.001234
      f+2     :     0.002259
      f-2     :     0.000231
      f+3     :     0.002572
      f-3     :     0.000684
  7 C s       :     0.023372  s :     0.023372
      pz      :     0.278048  p :     0.627924
      px      :     0.037899
      py      :     0.311977
      dz2     :     0.005048  d :     0.004037
      dxz     :    -0.000842
      dyz     :     0.000507
      dx2y2   :    -0.000459
      dxy     :    -0.000217
      f0      :     0.000686  f :     0.000816
      f+1     :    -0.000161
      f-1     :     0.000968
      f+2     :    -0.000056
      f-2     :    -0.000060
      f+3     :    -0.000290
      f-3     :    -0.000272
  8 C s       :    -0.002077  s :    -0.002077
      pz      :    -0.002098  p :    -0.006990
      px      :    -0.007786
      py      :     0.002895
      dz2     :     0.017232  d :     0.065203
      dxz     :     0.021585
      dyz     :     0.007337
      dx2y2   :     0.001611
      dxy     :     0.017438
      f0      :     0.000158  f :     0.008262
      f+1     :     0.002841
      f-1     :     0.000133
      f+2     :     0.000651
      f-2     :     0.000320
      f+3     :     0.000108
      f-3     :     0.004052
  9 C s       :     0.004398  s :     0.004398
      pz      :     0.009089  p :     0.015724
      px      :     0.002084
      py      :     0.004550
      dz2     :    -0.000156  d :     0.001770
      dxz     :     0.000913
      dyz     :     0.000086
      dx2y2   :     0.001043
      dxy     :    -0.000115
      f0      :    -0.000027  f :     0.000308
      f+1     :     0.000192
      f-1     :    -0.000027
      f+2     :     0.000044
      f-2     :    -0.000057
      f+3     :     0.000008
      f-3     :     0.000175
 10 F s       :     0.000004  s :     0.000004
      pz      :    -0.000003  p :    -0.000012
      px      :     0.000004
      py      :    -0.000012
      dz2     :     0.000002  d :     0.000009
      dxz     :    -0.000000
      dyz     :    -0.000000
      dx2y2   :     0.000006
      dxy     :     0.000002
      f0      :    -0.000000  f :     0.000001
      f+1     :     0.000000
      f-1     :     0.000000
      f+2     :    -0.000000
      f-2     :     0.000000
      f+3     :     0.000000
      f-3     :     0.000000
 11 F s       :     0.000004  s :     0.000004
      pz      :    -0.000003  p :     0.000151
      px      :     0.000110
      py      :     0.000044
      dz2     :     0.000001  d :     0.000011
      dxz     :     0.000006
      dyz     :     0.000003
      dx2y2   :     0.000001
      dxy     :     0.000000
      f0      :     0.000000  f :     0.000001
      f+1     :     0.000000
      f-1     :     0.000000
      f+2     :     0.000000
      f-2     :    -0.000000
      f+3     :     0.000000
      f-3     :     0.000000
 12 F s       :     0.000029  s :     0.000029
      pz      :     0.000006  p :    -0.000021
      px      :    -0.000018
      py      :    -0.000009
      dz2     :    -0.000001  d :     0.000010
      dxz     :     0.000005
      dyz     :     0.000004
      dx2y2   :     0.000001
      dxy     :    -0.000000
      f0      :     0.000000  f :     0.000001
      f+1     :     0.000000
      f-1     :    -0.000000
      f+2     :     0.000000
      f-2     :     0.000000
      f+3     :     0.000000
      f-3     :     0.000000
 13 F s       :     0.000002  s :     0.000002
      pz      :    -0.000027  p :     0.000197
      px      :     0.000107
      py      :     0.000117
      dz2     :     0.000005  d :     0.000018
      dxz     :     0.000005
      dyz     :     0.000003
      dx2y2   :     0.000005
      dxy     :    -0.000000
      f0      :     0.000000  f :     0.000001
      f+1     :     0.000000
      f-1     :     0.000000
      f+2     :     0.000000
      f-2     :    -0.000000
      f+3     :     0.000000
      f-3     :     0.000000
 14 F s       :     0.000424  s :     0.000424
      pz      :    -0.000021  p :     0.001299
      px      :     0.001122
      py      :     0.000197
      dz2     :     0.000032  d :     0.000195
      dxz     :     0.000000
      dyz     :     0.000002
      dx2y2   :     0.000158
      dxy     :     0.000003
      f0      :     0.000000  f :     0.000009
      f+1     :     0.000000
      f-1     :     0.000000
      f+2     :     0.000002
      f-2     :     0.000000
      f+3     :     0.000000
      f-3     :     0.000006
 15 F s       :     0.000086  s :     0.000086
      pz      :    -0.000120  p :     0.002282
      px      :     0.001008
      py      :     0.001395
      dz2     :     0.000046  d :     0.000173
      dxz     :     0.000070
      dyz     :     0.000042
      dx2y2   :    -0.000001
      dxy     :     0.000016
      f0      :     0.000004  f :     0.000009
      f+1     :     0.000001
      f-1     :     0.000000
      f+2     :    -0.000000
      f-2     :     0.000003
      f+3     :     0.000000
      f-3     :    -0.000000
 16 F s       :     0.002206  s :     0.002206
      pz      :     0.002660  p :     0.025504
      px      :     0.012763
      py      :     0.010080
      dz2     :    -0.000016  d :    -0.000009
      dxz     :    -0.000063
      dyz     :     0.000067
      dx2y2   :    -0.000002
      dxy     :     0.000005
      f0      :     0.000002  f :    -0.000003
      f+1     :    -0.000000
      f-1     :    -0.000004
      f+2     :    -0.000001
      f-2     :     0.000000
      f+3     :    -0.000001
      f-3     :    -0.000000
 17 F s       :    -0.000035  s :    -0.000035
      pz      :     0.000627  p :     0.003980
      px      :    -0.000723
      py      :     0.004076
      dz2     :    -0.000002  d :    -0.000111
      dxz     :    -0.000119
      dyz     :    -0.000026
      dx2y2   :     0.000033
      dxy     :     0.000004
      f0      :    -0.000002  f :    -0.000008
      f+1     :    -0.000003
      f-1     :    -0.000002
      f+2     :     0.000002
      f-2     :    -0.000004
      f+3     :     0.000000
      f-3     :     0.000001
 18 F s       :     0.002109  s :     0.002109
      pz      :     0.044103  p :     0.099058
      px      :     0.005077
      py      :     0.049878
      dz2     :     0.006869  d :     0.010254
      dxz     :     0.000171
      dyz     :     0.000499
      dx2y2   :     0.002369
      dxy     :     0.000346
      f0      :     0.000217  f :     0.000543
      f+1     :     0.000002
      f-1     :     0.000185
      f+2     :     0.000047
      f-2     :     0.000020
      f+3     :     0.000011
      f-3     :     0.000062
 19 F s       :     0.001472  s :     0.001472
      pz      :     0.004421  p :     0.012455
      px      :     0.001440
      py      :     0.006595
      dz2     :    -0.000013  d :    -0.000177
      dxz     :     0.000057
      dyz     :    -0.000076
      dx2y2   :    -0.000012
      dxy     :    -0.000134
      f0      :    -0.000001  f :    -0.000010
      f+1     :    -0.000000
      f-1     :    -0.000001
      f+2     :    -0.000002
      f-2     :     0.000000
      f+3     :    -0.000005
      f-3     :    -0.000001
 20 F s       :     0.000571  s :     0.000571
      pz      :     0.000492  p :     0.006082
      px      :     0.003166
      py      :     0.002424
      dz2     :    -0.000098  d :    -0.000194
      dxz     :    -0.000029
      dyz     :    -0.000015
      dx2y2   :    -0.000076
      dxy     :     0.000025
      f0      :    -0.000002  f :    -0.000010
      f+1     :    -0.000004
      f-1     :    -0.000001
      f+2     :    -0.000002
      f-2     :    -0.000001
      f+3     :    -0.000002
      f-3     :     0.000002
 21 F s       :     0.000077  s :     0.000077
      pz      :    -0.000042  p :     0.000949
      px      :     0.001538
      py      :    -0.000548
      dz2     :     0.000016  d :     0.000166
      dxz     :     0.000038
      dyz     :     0.000047
      dx2y2   :     0.000056
      dxy     :     0.000009
      f0      :     0.000001  f :     0.000010
      f+1     :    -0.000000
      f-1     :     0.000002
      f+2     :     0.000003
      f-2     :     0.000001
      f+3     :     0.000000
      f-3     :     0.000002
 22 F s       :     0.000349  s :     0.000349
      pz      :     0.004639  p :     0.006848
      px      :     0.000981
      py      :     0.001228
      dz2     :     0.000021  d :     0.000305
      dxz     :     0.000207
      dyz     :     0.000004
      dx2y2   :     0.000014
      dxy     :     0.000058
      f0      :     0.000002  f :     0.000015
      f+1     :     0.000003
      f-1     :     0.000000
      f+2     :     0.000007
      f-2     :     0.000000
      f+3     :     0.000000
      f-3     :     0.000002
 23 F s       :     0.000077  s :     0.000077
      pz      :    -0.000390  p :     0.001159
      px      :     0.000740
      py      :     0.000808
      dz2     :     0.000043  d :     0.000176
      dxz     :     0.000092
      dyz     :     0.000013
      dx2y2   :     0.000001
      dxy     :     0.000027
      f0      :     0.000001  f :     0.000011
      f+1     :     0.000007
      f-1     :    -0.000000
      f+2     :     0.000001
      f-2     :     0.000001
      f+3     :     0.000000
      f-3     :     0.000001


                      *****************************
                      * MAYER POPULATION ANALYSIS *
                      *****************************

  NA   - Mulliken gross atomic population
  ZA   - Total nuclear charge
  QA   - Mulliken gross atomic charge
  VA   - Mayer's total valence
  BVA  - Mayer's bonded valence
  FA   - Mayer's free valence

  ATOM       NA         ZA         QA         VA         BVA        FA
  0 C      5.8557     6.0000     0.1443     4.6758     4.6758     0.0000
  1 O      8.4719     8.0000    -0.4719     1.9792     1.9792     0.0000
  2 O      8.4872     8.0000    -0.4872     1.9599     1.9599     0.0000
  3 C      5.6607     6.0000     0.3393     3.8699     3.8699     0.0000
  4 C      5.6770     6.0000     0.3230     4.0521     4.0521     0.0000
  5 C      5.6630     6.0000     0.3370     4.0686     4.0684     0.0002
  6 C      5.6314     6.0000     0.3686     4.2286     4.2260     0.0027
  7 C      5.8955     6.0000     0.1045     3.8623     3.2729     0.5894
  8 C      5.6422     6.0000     0.3578     4.2379     4.2351     0.0028
  9 C      5.5255     6.0000     0.4745     4.4525     4.4517     0.0008
 10 F      9.2114     9.0000    -0.2114     1.0764     1.0764     0.0000
 11 F      9.2192     9.0000    -0.2192     1.0604     1.0604     0.0000
 12 F      9.1841     9.0000    -0.1841     1.1253     1.1253     0.0000
 13 F      9.1930     9.0000    -0.1930     1.1150     1.1150     0.0000
 14 F      9.1827     9.0000    -0.1827     1.1301     1.1301     0.0000
 15 F      9.1776     9.0000    -0.1776     1.1366     1.1366     0.0000
 16 F      9.1801     9.0000    -0.1801     1.1222     1.1215     0.0008
 17 F      9.1802     9.0000    -0.1802     1.1293     1.1293     0.0000
 18 F      9.1430     9.0000    -0.1430     1.1983     1.1866     0.0117
 19 F      9.1701     9.0000    -0.1701     1.1376     1.1374     0.0002
 20 F      9.1695     9.0000    -0.1695     1.1433     1.1433     0.0001
 21 F      9.1624     9.0000    -0.1624     1.1518     1.1518     0.0000
 22 F      9.1566     9.0000    -0.1566     1.1635     1.1634     0.0001
 23 F      9.1599     9.0000    -0.1599     1.1565     1.1565     0.0000

  Mayer bond orders larger than 0.100000
B(  0-C ,  1-O ) :   1.8976 B(  0-C ,  2-O ) :   1.8720 B(  0-C ,  3-C ) :   0.8479 
B(  3-C ,  4-C ) :   0.9178 B(  3-C , 10-F ) :   1.0433 B(  3-C , 11-F ) :   1.0267 
B(  4-C ,  5-C ) :   0.9159 B(  4-C , 12-F ) :   1.0672 B(  4-C , 13-F ) :   1.0560 
B(  5-C ,  6-C ) :   0.9254 B(  5-C , 14-F ) :   1.0575 B(  5-C , 15-F ) :   1.0709 
B(  6-C ,  7-C ) :   1.0456 B(  6-C , 16-F ) :   1.0711 B(  6-C , 17-F ) :   1.0642 
B(  7-C ,  8-C ) :   1.0136 B(  7-C , 18-F ) :   1.1236 B(  8-C ,  9-C ) :   0.9525 
B(  8-C , 19-F ) :   1.0979 B(  8-C , 20-F ) :   1.0879 B(  9-C , 21-F ) :   1.1310 
B(  9-C , 22-F ) :   1.1419 B(  9-C , 23-F ) :   1.1377 

-------
TIMINGS
-------

Total SCF time: 0 days 0 hours 1 min 11 sec 

Total time                  ....      71.935 sec
Sum of individual times     ....      69.482 sec  ( 96.6%)

Fock matrix formation       ....      60.948 sec  ( 84.7%)
  Split-RI-J                ....       3.870 sec  (  6.3% of F)
  Chain of spheres X        ....      43.829 sec  ( 71.9% of F)
  XC integration            ....       7.734 sec  ( 12.7% of F)
    Basis function eval.    ....       0.710 sec  (  9.2% of XC)
    Density eval.           ....       2.226 sec  ( 28.8% of XC)
    XC-Functional eval.     ....       0.322 sec  (  4.2% of XC)
    XC-Potential eval.      ....       1.361 sec  ( 17.6% of XC)
Diagonalization             ....       3.757 sec  (  5.2%)
Density matrix formation    ....       0.167 sec  (  0.2%)
Population analysis         ....       0.278 sec  (  0.4%)
Initial guess               ....       0.468 sec  (  0.7%)
Orbital Transformation      ....       0.000 sec  (  0.0%)
Orbital Orthonormalization  ....       0.397 sec  (  0.6%)
DIIS solution               ....       1.560 sec  (  2.2%)
Grid generation             ....       2.304 sec  (  3.2%)

Maximum memory used throughout the entire SCF-calculation: 161.2 MB


-------------------------------------------------------------------------------
                          DFT DISPERSION CORRECTION                            
                                                                               
                              DFTD3 V3.1  Rev 1                                
                          USING Becke-Johnson damping                          
-------------------------------------------------------------------------------
The B3LYP functional is recognized
Active option DFTDOPT                   ...         4   

molecular C6(AA) [au] = 6299.876928 


            DFT-D V3
 parameters
 s6 scaling factor         :     1.0000 
 a1 scaling factor         :     0.3981 
 s8 scaling factor         :     1.9889 
 a2 scaling factor         :     4.4211 
 ad hoc parameters k1-k3   :    16.0000     1.3333    -4.0000 

 Edisp/kcal,au: -26.651810006902  -0.042472358212 
 E6   /kcal   : -12.656021711 
 E8   /kcal   : -13.995788296 
 % E8         :  52.513462658 

-------------------------   ----------------
Dispersion correction           -0.042472358
-------------------------   ----------------


-------------------------   --------------------
FINAL SINGLE POINT ENERGY     -1853.284934084187
-------------------------   --------------------

                                *** OPTIMIZATION RUN DONE ***

                            ***************************************
                            *     ORCA property calculations      *
                            ***************************************

                                    ---------------------
                                    Active property flags
                                    ---------------------
   (+) Dipole Moment


------------------------------------------------------------------------------
                       ORCA ELECTRIC PROPERTIES CALCULATION
------------------------------------------------------------------------------

Dipole Moment Calculation                       ... on
Quadrupole Moment Calculation                   ... off
Polarizability Calculation                      ... off
GBWName                                         ... rf_mecn_opt_B3L_C6_D_B.gbw
Electron density                                ... rf_mecn_opt_B3L_C6_D_B.scfp
The origin for moment calculation is the CENTER OF MASS  = ( 0.077084,  0.039795  0.111335)

-------------
DIPOLE MOMENT
-------------
                                X             Y             Z
Electronic contribution:    -16.12351       0.24543       4.33213
Nuclear contribution   :      8.20376      -0.04144      -2.07802
                        -----------------------------------------
Total Dipole Moment    :     -7.91974       0.20399       2.25411
                        -----------------------------------------
Magnitude (a.u.)       :      8.23680
Magnitude (Debye)      :     20.93629



--------------------
Rotational spectrum 
--------------------
 
Rotational constants in cm-1:     0.017601     0.004572     0.004400 
Rotational constants in MHz :   527.664732   137.069871   131.916282 

 Dipole components along the rotational axes: 
x,y,z [a.u.] :     8.015192     1.739004    -0.759948 
x,y,z [Debye]:    20.372998     4.420196    -1.931634 

 

Timings for individual modules:

Sum of individual times         ...     4561.146 sec (=  76.019 min)
GTO integral calculation        ...       46.747 sec (=   0.779 min)   1.0 %
SCF iterations                  ...     3671.495 sec (=  61.192 min)  80.5 %
SCF Gradient evaluation         ...      840.825 sec (=  14.014 min)  18.4 %
Geometry relaxation             ...        2.079 sec (=   0.035 min)   0.0 %
                             ****ORCA TERMINATED NORMALLY****
TOTAL RUN TIME: 0 days 1 hours 16 minutes 20 seconds 103 msec
