
                                 *****************
                                 * O   R   C   A *
                                 *****************

                                            #,                                       
                                            ###                                      
                                            ####                                     
                                            #####                                    
                                            ######                                   
                                           ########,                                 
                                     ,,################,,,,,                         
                               ,,#################################,,                 
                          ,,##########################################,,             
                       ,#########################################, ''#####,          
                    ,#############################################,,   '####,        
                  ,##################################################,,,,####,       
                ,###########''''           ''''###############################       
              ,#####''   ,,,,##########,,,,          '''####'''          '####       
            ,##' ,,,,###########################,,,                        '##       
           ' ,,###''''                  '''############,,,                           
         ,,##''                                '''############,,,,        ,,,,,,###''
      ,#''                                            '''#######################'''  
     '                                                          ''''####''''         
             ,#######,   #######,   ,#######,      ##                                
            ,#'     '#,  ##    ##  ,#'     '#,    #''#        ,####,   ,####,        
            ##       ##  ##   ,#'  ##            #'  '#       #'       #'  '#        
            ##       ##  #######   ##           ,######,      #####,   #    #        
            '#,     ,#'  ##    ##  '#,     ,#' ,#      #,     #,   #   #,  ,#        
             '#######'   ##     ##  '#######'  #'      '#     '####' # '####'        



                #########################################################
                #                        -***-                          #
                #          Department of theory and spectroscopy        #
                #                                                       #
                #                      Frank Neese                      #
                #                                                       #
                #     Directorship, Architecture, Infrastructure        #
                #                    SHARK, DRIVERS                     #
                #        Core code/Algorithms in most modules           #
                #                                                       #
                #        Max Planck Institute fuer Kohlenforschung      #
                #                Kaiser Wilhelm Platz 1                 #
                #                 D-45470 Muelheim/Ruhr                 #
                #                      Germany                          #
                #                                                       #
                #                  All rights reserved                  #
                #                        -***-                          #
                #########################################################


                         Program Version 6.0.1  -  RELEASE   -


 With contributions from (in alphabetic order):
[Max-Planck-Institut fuer Kohlenforschung]                               
  Daniel Aravena         : Magnetic Suceptibility                        
  Michael Atanasov       : Ab Initio Ligand Field Theory (pilot matlab implementation)
  Alexander A. Auer      : GIAO ZORA, VPT2 properties, NMR spectrum      
  Ute Becker             : All parallelization in ORCA, NUMFREQ, NUMCALC 
  Giovanni Bistoni       : ED, misc. LED, open-shell LED, HFLD           
  Martin Brehm           : Molecular dynamics                            
  Dmytro Bykov           : pre 5.0 version of the SCF Hessian            
  Marcos Casanova-Páez   : Triplet and SCS-CIS(D). UHF-(DLPNO)-IP/EA/STEOM-CCSD. UHF-CVS-IP/STEOM-CCSD   
  Vijay G. Chilkuri      : MRCI spin determinant printing, contributions to CSF-ICE 
  Pauline Colinet        : FMM embedding                                 
  Dipayan Datta          : RHF DLPNO-CCSD density                        
  Achintya Kumar Dutta   : EOM-CC, STEOM-CC                              
  Nicolas Foglia         : Exact transition moments, OPA infrastructure, MCD improvements    
  Dmitry Ganyushin       : Spin-Orbit,Spin-Spin,Magnetic field MRCI      
  Miquel Garcia-Rates    : C-PCM and meta-GGA Hessian, CCSD/C-PCM, Gaussian charge scheme 
  Tiago L. C. Gouveia    : GS-ROHF, GS-ROCIS                             
  Yang Guo               : DLPNO-NEVPT2, F12-NEVPT2, CIM, IAO-localization        
  Andreas Hansen         : Spin unrestricted coupled pair/coupled cluster methods 
  Ingolf Harden          : AUTO-CI MPn and infrastructure                
  Benjamin Helmich-Paris : MC-RPA, TRAH-(SCF,CASSCF), AVAS, COSX integrals, SCF dyn. polar. 
  Lee Huntington         : MR-EOM, pCC                                   
  Robert Izsak           : Overlap fitted RIJCOSX, COSX-SCS-MP3, EOM     
  Riya Kayal             : Wick's Theorem for AUTO-CI, AUTO-CI UHF-CCSDT 
  Emily Kempfer          : AUTO-CI, RHF CISDT and CCSDT                  
  Christian Kollmar      : KDIIS, OOCD, Brueckner-CCSD(T), CCSD density, CASPT2, CASPT2-K, improved NEVPT2 
  Axel Koslowski         : Symmetry handling                             
  Simone Kossmann        : meta-GGA functionals, TD-DFT gradient, OOMP2, (MP2 Hessian; deprecated post 5.0) 
  Lucas Lang             : DCDCAS                                        
  Marvin Lechner         : AUTO-CI (C++ implementation), FIC-MRCC        
  Spencer Leger          : CASSCF response                               
  Dagmar Lenk            : GEPOL surface, SMD, ORCA-2-JSON               
  Dimitrios Liakos       : Extrapolation schemes; Compound Job, initial MDCI parallelization 
  Dimitrios Manganas     : Further ROCIS development; embedding schemes. LFT, Crystal Embedding 
  Dimitrios Pantazis     : SARC Basis sets                               
  Anastasios Papadopoulos: AUTO-CI, single reference methods and gradients 
  Taras Petrenko         : pre 6.0 DFT Hessian and TD-DFT gradient, (ASA, deprecated), ECA, 1-Electron XAS/XES, NRVS 
  Peter Pinski           : DLPNO-MP2, DLPNO-MP2 Gradient                 
  Christoph Reimann      : Effective Core Potentials                     
  Marius Retegan         : Local ZFS, SOC                                
  Christoph Riplinger    : Optimizer, TS searches, QM/MM, DLPNO-CCSD(T), (RO)-DLPNO pert. Triples 
  Michael Roemelt        : Original ROCIS implementation                 
  Masaaki Saitow         : Open-shell DLPNO-CCSD energy and density      
  Barbara Sandhoefer     : DKH picture change effects                    
  Kantharuban Sivalingam : CASSCF convergence/infrastructure, NEVPT2 and variants, FIC-MRCI 
  Bernardo de Souza      : ESD, SOC TD-DFT                               
  Georgi L. Stoychev     : AutoAux, RI-MP2 NMR, DLPNO-MP2 response, X2C  
  Van Anh Tran           : RI-MP2 g-tensors                              
  Willem Van den Heuvel  : Paramagnetic NMR                              
  Zikuan Wang            : NOTCH, Electric field optimization            
  Frank Wennmohs         : Technical directorship and infrastructure     
  Hang Xu                : AUTO-CI-Response properties                   
                                                                         
[FACCTs GmbH]                                                            
  Markus Bursch, Miquel Garcia-Rates, Christoph Riplinger, Bernardo de Souza, Georgi L. Stoychev 
                                                                 
  APM, Basis sets (HGBS, AHGBS, def-TZVP (Ac-Lr), def2-XVPD (La-Lu)), CI-OPT, improved COSX, DLPNO-Multilevel,           
  DOCKER, DRACO, updates on ESD, GOAT, IRC, LR-CPCM, MBIS, meta-GGA TD-DFT gradient, ML-optimized integration grids, 
  MM, NACMEs, nearIR, NEB, NEB-TS, NL-DFT gradient (VV10), 2- and 3-layer-ONIOM, interface openCOSMO-RS, QMMM,   
  Crystal-QMMM, SF, symmetry and pop. for TD-DFT, r2SCAN hybrids, SOLVATOR                                   
                                                                         
[Other institutions]                                                     
  V. Asgeirsson          : NEB                                           
  Christoph Bannwarth    : sTDA-DFT, sTD-DFT, PBEh-3c, B97-3c, D3        
  Sebastian Ehlert       : rSCAN, r2SCAN, r2SCAN-3c, D4, dhf basis sets  
  Marvin Friede          : D4 for Fr, Ra, Ac-Lr                          
  Lars Goerigk           : TD-DFT with DH, B97 family of functionals     
  Stefan Grimme          : VdW corrections, initial TS optimization, DFT functionals, gCP, sTDA/sTD-DF 
  Waldemar Hujo          : DFT-NL                                        
  H. Jonsson             : NEB                                           
  Holger Kruse           : gCP                                           
  Marcel Mueller         : wB97X-3c, vDZP basis set                      
  Hagen Neugebauer       : wr2SCAN                                       
  Tobias Risthaus        : range-separated hybrid DFT                    
  Lukas Wittmann         : regularized MP2, r2SCAN double-hybrids, wr2SCAN        
                                                                         
We gratefully acknowledge several colleagues who have allowed us to      
interface, adapt or use parts of their codes:                            
  Ed Valeev, F. Pavosevic, A. Kumar             : LibInt (2-el integral package), F12 methods 
  Garnet Chan, S. Sharma, J. Yang, R. Olivares  : DMRG                   
  Ulf Ekstrom                                   : XCFun DFT Library      
  Mihaly Kallay                                 : mrcc  (arbitrary order and MRCC methods)
  Frank Weinhold                                : gennbo (NPA and NBO analysis)           
  Simon Mueller                                 : openCOSMO-RS                            
  Christopher J. Cramer and Donald G. Truhlar   : smd solvation model                     
  S Lehtola, MJT Oliveira, MAL Marques          : LibXC Library                           
  Liviu Ungur et al                             : ANISO software                          


 Your calculation uses the libint2 library for the computation of 2-el integrals
 For citations please refer to: http://libint.valeyev.net

 Your ORCA version has been built with support for libXC version: 6.2.2
 For citations please refer to: https://libxc.gitlab.io

 This ORCA versions uses:
   CBLAS   interface :  Fast vector & matrix operations
   LAPACKE interface :  Fast linear algebra routines
   SCALAPACK package :  Parallel linear algebra routines
   Shared memory     :  Shared parallel matrices
   BLAS/LAPACK       :  OpenBLAS 0.3.27  USE64BITINT DYNAMIC_ARCH NO_AFFINITY SkylakeX SINGLE_THREADED
        Core in use  :  SkylakeX
   Copyright (c) 2011-2014, The OpenBLAS Project


NOTE: MaxCore=8000 MB was set to SCF,MP2,MDCI,CIPSI,MRCI and CIS
      => If you want to overwrite this, your respective input block should be placed after the MaxCore statement
Your calculation utilizes the atom-pairwise dispersion correction
with the Becke-Johnson damping scheme (D3BJ)


Your calculation utilizes the SMD solvation module
Please cite in your paper:
A.V. Marenich, C.J. Cramer, D.G. Truhlar J. Phys. Chem. B, 113, (2009), 6378 

Warning: RI is on but no J-basis has been assigned. Assigning Def2/J (nothing to worry about!)
================================================================================

----- Orbital basis set information -----
Your calculation utilizes the basis: def2-TZVP
   F. Weigend and R. Ahlrichs, Phys. Chem. Chem. Phys. 7, 3297 (2005).

----- AuxJ basis set information -----
Your calculation utilizes the auxiliary basis: def2/J
   F. Weigend, Phys. Chem. Chem. Phys. 8, 1057 (2006).

================================================================================
                                        WARNINGS
                       Please study these warnings very carefully!
================================================================================


WARNING: your system is open-shell and RHF/RKS was chosen
  ===> : WILL SWITCH to UHF/UKS


================================================================================
                                       INPUT FILE
================================================================================
NAME = rf_mecn_freq_TP_C8_P_B.inp
|  1> !TPSSh def2-TZVP freq d3 TightSCF SlowConv defgrid2
|  2>  
|  3> %pal
|  4> nprocs 20
|  5> end
|  6>  
|  7> %scf
|  8> MaxIter 1500
|  9> end
| 10>  
| 11> %maxcore 8000
| 12>  
| 13> !CPCM
| 14> %cpcm smd true
| 15> SMDsolvent "ACETONITRILE"
| 16> end
| 17>  
| 18> * xyz 0 2
| 19> 6        4.781193000     -0.041199000     -0.267041000
| 20> 8        5.137647000     -0.854864000     -1.251758000
| 21> 8        5.331978000      0.966341000      0.083913000
| 22> 6        3.485705000     -0.540411000      0.428739000
| 23> 6        2.218133000      0.138208000     -0.182001000
| 24> 6        0.863888000     -0.528655000      0.238853000
| 25> 6       -0.379264000      0.401677000      0.021981000
| 26> 6       -1.739760000     -0.376000000      0.020737000
| 27> 6       -2.991335000      0.532828000      0.239131000
| 28> 6       -4.277170000     -0.161654000     -0.172435000
| 29> 9        3.357019000     -1.884248000      0.318130000
| 30> 9        3.561060000     -0.223109000      1.738983000
| 31> 9        2.215187000      1.435742000      0.195792000
| 32> 9        2.321565000      0.085515000     -1.529764000
| 33> 9        0.698393000     -1.654195000     -0.489470000
| 34> 9        0.924455000     -0.864511000      1.544484000
| 35> 9       -0.401349000      1.324694000      1.006440000
| 36> 9       -0.247594000      1.035233000     -1.163440000
| 37> 9       -1.714632000     -1.310496000      0.997181000
| 38> 9       -1.876696000     -0.999218000     -1.170141000
| 39> 9       -2.869340000      1.654761000     -0.508249000
| 40> 9       -3.034980000      0.910491000      1.548333000
| 41> 9       -4.511156000     -1.323849000      0.418692000
| 42> 9       -5.343250000      0.622400000     -0.151770000
| 43> 1        5.940856000     -0.498149000     -1.684553000
| 44> *
| 45> 
| 46>                          ****END OF INPUT****
================================================================================

                       ****************************
                       * Single Point Calculation *
                       ****************************

---------------------------------
CARTESIAN COORDINATES (ANGSTROEM)
---------------------------------
  C      4.781193   -0.041199   -0.267041
  O      5.137647   -0.854864   -1.251758
  O      5.331978    0.966341    0.083913
  C      3.485705   -0.540411    0.428739
  C      2.218133    0.138208   -0.182001
  C      0.863888   -0.528655    0.238853
  C     -0.379264    0.401677    0.021981
  C     -1.739760   -0.376000    0.020737
  C     -2.991335    0.532828    0.239131
  C     -4.277170   -0.161654   -0.172435
  F      3.357019   -1.884248    0.318130
  F      3.561060   -0.223109    1.738983
  F      2.215187    1.435742    0.195792
  F      2.321565    0.085515   -1.529764
  F      0.698393   -1.654195   -0.489470
  F      0.924455   -0.864511    1.544484
  F     -0.401349    1.324694    1.006440
  F     -0.247594    1.035233   -1.163440
  F     -1.714632   -1.310496    0.997181
  F     -1.876696   -0.999218   -1.170141
  F     -2.869340    1.654761   -0.508249
  F     -3.034980    0.910491    1.548333
  F     -4.511156   -1.323849    0.418692
  F     -5.343250    0.622400   -0.151770
  H      5.940856   -0.498149   -1.684553

----------------------------
CARTESIAN COORDINATES (A.U.)
----------------------------
  NO LB      ZA    FRAG     MASS         X           Y           Z
   0 C     6.0000    0    12.011    9.035145   -0.077855   -0.504634
   1 O     8.0000    0    15.999    9.708746   -1.615459   -2.365480
   2 O     8.0000    0    15.999   10.075978    1.826120    0.158573
   3 C     6.0000    0    12.011    6.587028   -1.021229    0.810199
   4 C     6.0000    0    12.011    4.191664    0.261175   -0.343932
   5 C     6.0000    0    12.011    1.632512   -0.999013    0.451367
   6 C     6.0000    0    12.011   -0.716705    0.759060    0.041538
   7 C     6.0000    0    12.011   -3.287670   -0.710537    0.039187
   8 C     6.0000    0    12.011   -5.652804    1.006899    0.451892
   9 C     6.0000    0    12.011   -8.082680   -0.305482   -0.325855
  10 F     9.0000    0    18.998    6.343847   -3.560713    0.601179
  11 F     9.0000    0    18.998    6.729428   -0.421615    3.286202
  12 F     9.0000    0    18.998    4.186097    2.713159    0.369993
  13 F     9.0000    0    18.998    4.387122    0.161600   -2.890835
  14 F     9.0000    0    18.998    1.319772   -3.125976   -0.924964
  15 F     9.0000    0    18.998    1.746967   -1.633689    2.918652
  16 F     9.0000    0    18.998   -0.758440    2.503309    1.901896
  17 F     9.0000    0    18.998   -0.467885    1.956307   -2.198583
  18 F     9.0000    0    18.998   -3.240185   -2.476479    1.884399
  19 F     9.0000    0    18.998   -3.546441   -1.888248   -2.211246
  20 F     9.0000    0    18.998   -5.422267    3.127045   -0.960451
  21 F     9.0000    0    18.998   -5.735281    1.720579    2.925925
  22 F     9.0000    0    18.998   -8.524849   -2.501712    0.791213
  23 F     9.0000    0    18.998  -10.097279    1.176166   -0.286804
  24 H     1.0000    0     1.008   11.226591   -0.941365   -3.183344

--------------------------------
INTERNAL COORDINATES (ANGSTROEM)
--------------------------------
 C      0   0   0     0.000000000000     0.00000000     0.00000000
 O      1   0   0     1.326189185761     0.00000000     0.00000000
 O      1   2   0     1.200695497593   127.48639502     0.00000000
 C      1   2   3     1.552936440260   111.07996282   179.35964712
 C      4   1   2     1.562135035759   111.22901246   265.77383621
 C      5   4   1     1.567100465864   114.29045616   167.37426267
 C      6   5   4     1.567793988288   113.30113958   161.21891984
 C      7   6   5     1.567077671936   113.20551056   162.56494811
 C      8   7   6     1.562083305539   114.00162568   162.53970970
 C      9   8   7     1.518243546966   111.99596482   163.02706221
 F      4   1   2     1.354508146910   111.19843833    27.18311130
 F      4   1   2     1.350221565064   108.22050050   146.28782704
 F      5   4   1     1.351418037071   108.03331159   289.34921369
 F      5   4   1     1.352752688056   108.09289293    46.48330331
 F      6   5   4     1.350808379806   108.40004778   282.12117055
 F      6   5   4     1.349496173535   109.08360894    40.26526398
 F      7   6   5     1.349669460348   108.53563354   283.73400284
 F      7   6   5     1.350538093234   108.81320545    41.89203423
 F      8   7   6     1.351797719903   109.04750161    41.22102584
 F      8   7   6     1.351052387772   108.51843396   283.03579114
 F      9   8   7     1.353585350436   109.44048641    43.53432594
 F      9   8   7     1.363284307985   108.72874168   286.17781286
 F     10   9   8     1.324718006351   115.46339380    56.04756348
 F     10   9   8     1.323515879595   114.01504683   187.45369519
 H      2   1   3     0.979643711219   108.96573603   359.02323320

---------------------------
INTERNAL COORDINATES (A.U.)
---------------------------
 C      0   0   0     0.000000000000     0.00000000     0.00000000
 O      1   0   0     2.506134362857     0.00000000     0.00000000
 O      1   2   0     2.268985660684   127.48639502     0.00000000
 C      1   2   3     2.934624575478   111.07996282   179.35964712
 C      4   1   2     2.952007401787   111.22901246   265.77383621
 C      5   4   1     2.961390704823   114.29045616   167.37426267
 C      6   5   4     2.962701272272   113.30113958   161.21891984
 C      7   6   5     2.961347630542   113.20551056   162.56494811
 C      8   7   6     2.951909645840   114.00162568   162.53970970
 C      9   8   7     2.869064508360   111.99596482   163.02706221
 F      4   1   2     2.559649443825   111.19843833    27.18311130
 F      4   1   2     2.551548978086   108.22050050   146.28782704
 F      5   4   1     2.553809982506   108.03331159   289.34921369
 F      5   4   1     2.556332107351   108.09289293    46.48330331
 F      6   5   4     2.552657897239   108.40004778   282.12117055
 F      6   5   4     2.550178186756   109.08360894    40.26526398
 F      7   6   5     2.550505651374   108.53563354   283.73400284
 F      7   6   5     2.552147129641   108.81320545    41.89203423
 F      8   7   6     2.554527479077   109.04750161    41.22102584
 F      8   7   6     2.553119005469   108.51843396   283.03579114
 F      9   8   7     2.557905611211   109.44048641    43.53432594
 F      9   8   7     2.576233984764   108.72874168   286.17781286
 F     10   9   8     2.503354236677   115.46339380    56.04756348
 F     10   9   8     2.501082546331   114.01504683   187.45369519
 H      2   1   3     1.851258323022   108.96573603   359.02323320

---------------------
BASIS SET INFORMATION
---------------------
There are 4 groups of distinct atoms

 Group   1 Type C   : 11s6p2d1f contracted to 5s3p2d1f pattern {62111/411/11/1}
 Group   2 Type O   : 11s6p2d1f contracted to 5s3p2d1f pattern {62111/411/11/1}
 Group   3 Type F   : 11s6p2d1f contracted to 5s3p2d1f pattern {62111/411/11/1}
 Group   4 Type H   : 5s1p contracted to 3s1p pattern {311/1}

Atom   0C    basis set group =>   1
Atom   1O    basis set group =>   2
Atom   2O    basis set group =>   2
Atom   3C    basis set group =>   1
Atom   4C    basis set group =>   1
Atom   5C    basis set group =>   1
Atom   6C    basis set group =>   1
Atom   7C    basis set group =>   1
Atom   8C    basis set group =>   1
Atom   9C    basis set group =>   1
Atom  10F    basis set group =>   3
Atom  11F    basis set group =>   3
Atom  12F    basis set group =>   3
Atom  13F    basis set group =>   3
Atom  14F    basis set group =>   3
Atom  15F    basis set group =>   3
Atom  16F    basis set group =>   3
Atom  17F    basis set group =>   3
Atom  18F    basis set group =>   3
Atom  19F    basis set group =>   3
Atom  20F    basis set group =>   3
Atom  21F    basis set group =>   3
Atom  22F    basis set group =>   3
Atom  23F    basis set group =>   3
Atom  24H    basis set group =>   4
---------------------------------
AUXILIARY/J BASIS SET INFORMATION
---------------------------------
There are 4 groups of distinct atoms

 Group   1 Type C   : 12s5p4d2f1g contracted to 6s4p3d1f1g pattern {711111/2111/211/2/1}
 Group   2 Type O   : 12s5p4d2f1g contracted to 6s4p3d1f1g pattern {711111/2111/211/2/1}
 Group   3 Type F   : 12s5p4d2f1g contracted to 6s4p3d1f1g pattern {711111/2111/211/2/1}
 Group   4 Type H   : 5s2p1d contracted to 3s1p1d pattern {311/2/1}

Atom   0C    basis set group =>   1
Atom   1O    basis set group =>   2
Atom   2O    basis set group =>   2
Atom   3C    basis set group =>   1
Atom   4C    basis set group =>   1
Atom   5C    basis set group =>   1
Atom   6C    basis set group =>   1
Atom   7C    basis set group =>   1
Atom   8C    basis set group =>   1
Atom   9C    basis set group =>   1
Atom  10F    basis set group =>   3
Atom  11F    basis set group =>   3
Atom  12F    basis set group =>   3
Atom  13F    basis set group =>   3
Atom  14F    basis set group =>   3
Atom  15F    basis set group =>   3
Atom  16F    basis set group =>   3
Atom  17F    basis set group =>   3
Atom  18F    basis set group =>   3
Atom  19F    basis set group =>   3
Atom  20F    basis set group =>   3
Atom  21F    basis set group =>   3
Atom  22F    basis set group =>   3
Atom  23F    basis set group =>   3
Atom  24H    basis set group =>   4


           ************************************************************
           *        Program running with 20 parallel MPI-processes    *
           *              working on a common directory               *
           ************************************************************
------------------------------------------------------------------------------
                             ORCA STARTUP CALCULATIONS
                           -- RI-GTO INTEGRALS CHOSEN --
------------------------------------------------------------------------------
------------------------------------------------------------------------------
                   ___                                                        
                  /   \      - P O W E R E D   B Y -                         
                 /     \                                                     
                 |  |  |   _    _      __       _____    __    __             
                 |  |  |  | |  | |    /  \     |  _  \  |  |  /  |          
                  \  \/   | |  | |   /    \    | | | |  |  | /  /          
                 / \  \   | |__| |  /  /\  \   | |_| |  |  |/  /          
                |  |  |   |  __  | /  /__\  \  |    /   |      \           
                |  |  |   | |  | | |   __   |  |    \   |  |\   \          
                \     /   | |  | | |  |  |  |  | |\  \  |  | \   \       
                 \___/    |_|  |_| |__|  |__|  |_| \__\ |__|  \__/        
                                                                              
                      - O R C A' S   B I G   F R I E N D -                    
                                      &                                       
                       - I N T E G R A L  F E E D E R -                       
                                                                              
 v1 FN, 2020, v2 2021, v3 2022-2024                                           
------------------------------------------------------------------------------


----------------------
SHARK INTEGRAL PACKAGE
----------------------

Number of atoms                             ...     25
Number of basis functions                   ...    750
Number of shells                            ...    268
Maximum angular momentum                    ...      3
Integral batch strategy                     ... SHARK/LIBINT Hybrid
RI-J (if used) integral strategy            ... SPLIT-RIJ (Revised 2003 algorithm where possible)
Printlevel                                  ...      1
Contraction scheme used                     ... SEGMENTED contraction
Prescreening option                         ... SCHWARTZ
   Thresh                                   ... 2.500e-11
   Tcut                                     ... 2.500e-12
   Tpresel                                  ... 2.500e-12 
Coulomb Range Separation                    ... NOT USED
Exchange Range Separation                   ... NOT USED
Multipole approximations                    ... NOT USED
Finite Nucleus Model                        ... NOT USED
CABS basis                                  ... NOT available
Auxiliary Coulomb fitting basis             ... AVAILABLE
   # of basis functions in Aux-J            ...   1187
   # of shells in Aux-J                     ...    365
   Maximum angular momentum in Aux-J        ...      4
Auxiliary J/K fitting basis                 ... NOT available
Auxiliary Correlation fitting basis         ... NOT available
Auxiliary 'external' fitting basis          ... NOT available

Checking pre-screening integrals            ... done (  0.0 sec) Dimension = 268
Check shell pair data                       ... done (  0.0 sec)
Shell pair information
Shell pair cut-off parameter TPreSel        ...   2.5e-12
Total number of shell pairs                 ...     36046
Shell pairs after pre-screening             ...     22551
Total number of primitive shell pairs       ...    118872
Primitive shell pairs kept                  ...     47934
          la=0 lb=0:   4302 shell pairs
          la=1 lb=0:   6164 shell pairs
          la=1 lb=1:   2123 shell pairs
          la=2 lb=0:   3353 shell pairs
          la=2 lb=1:   2440 shell pairs
          la=2 lb=2:    692 shell pairs
          la=3 lb=0:   1516 shell pairs
          la=3 lb=1:   1178 shell pairs
          la=3 lb=2:    632 shell pairs
          la=3 lb=3:    151 shell pairs

Calculating one electron integrals          ... done (  0.0 sec)
Calculating RI/J V-Matrix + Cholesky decomp.... done (  0.1 sec)
Calculating Nuclear repulsion               ... done (  0.0 sec) ENN=   2672.310609245521 Eh

Diagonalization of the overlap matrix:
Smallest eigenvalue                        ... 5.966e-05
Time for diagonalization                   ...    0.096 sec
Threshold for overlap eigenvalues          ... 1.000e-07
Number of eigenvalues below threshold      ... 0
Time for construction of square roots      ...    0.043 sec
Total time needed                          ...    0.143 sec

-------------------
DFT GRID GENERATION
-------------------

General Integration Accuracy     IntAcc      ... 4.388
Radial Grid Type                 RadialGrid  ... OptM3 with GC (2021)
Angular Grid (max. ang.)         AngularGrid ... 4 (Lebedev-302)
Angular grid pruning method      GridPruning ... 4 (adaptive)
Weight generation scheme         WeightScheme... mBecke (2022)
Basis function cutoff            BFCut       ... 1.0000e-11
Integration weight cutoff        WCut        ... 1.0000e-14
Partially contracted basis set               ... off
Rotationally invariant grid construction     ... off
Angular grids for H and He will be reduced by one unit

Total number of grid points                  ...   148637
Total number of batches                      ...     2337
Average number of points per batch           ...       63
Average number of grid points per atom       ...     5945

--------------------
COSX GRID GENERATION
--------------------

GRIDX 1
-------
General Integration Accuracy     IntAcc      ... 3.816
Radial Grid Type                 RadialGrid  ... OptM3 with GC (2021)
Angular Grid (max. ang.)         AngularGrid ... 1 (Lebedev-50)
Angular grid pruning method      GridPruning ... 4 (adaptive)
Weight generation scheme         WeightScheme... mBecke (2022)
Basis function cutoff            BFCut       ... 1.0000e-11
Integration weight cutoff        WCut        ... 1.0000e-14
Partially contracted basis set               ... on
Rotationally invariant grid construction     ... off
Angular grids for H and He will be reduced by one unit

Total number of grid points                  ...    18683
Total number of batches                      ...      156
Average number of points per batch           ...      119
Average number of grid points per atom       ...      747
UseSFitting                                  ... on

GRIDX 2
-------
General Integration Accuracy     IntAcc      ... 4.020
Radial Grid Type                 RadialGrid  ... OptM3 with GC (2021)
Angular Grid (max. ang.)         AngularGrid ... 2 (Lebedev-110)
Angular grid pruning method      GridPruning ... 4 (adaptive)
Weight generation scheme         WeightScheme... mBecke (2022)
Basis function cutoff            BFCut       ... 1.0000e-11
Integration weight cutoff        WCut        ... 1.0000e-14
Partially contracted basis set               ... on
Rotationally invariant grid construction     ... off
Angular grids for H and He will be reduced by one unit

Total number of grid points                  ...    44068
Total number of batches                      ...      357
Average number of points per batch           ...      123
Average number of grid points per atom       ...     1763
UseSFitting                                  ... on

GRIDX 3
-------
General Integration Accuracy     IntAcc      ... 4.338
Radial Grid Type                 RadialGrid  ... OptM3 with GC (2021)
Angular Grid (max. ang.)         AngularGrid ... 3 (Lebedev-194)
Angular grid pruning method      GridPruning ... 4 (adaptive)
Weight generation scheme         WeightScheme... mBecke (2022)
Basis function cutoff            BFCut       ... 1.0000e-11
Integration weight cutoff        WCut        ... 1.0000e-14
Partially contracted basis set               ... on
Rotationally invariant grid construction     ... off
Angular grids for H and He will be reduced by one unit

Total number of grid points                  ...    97582
Total number of batches                      ...      774
Average number of points per batch           ...      126
Average number of grid points per atom       ...     3903
UseSFitting                                  ... on
Initializing property integral containers    ... done (  0.0 sec)

SHARK setup successfully completed in   3.1 seconds

Maximum memory used throughout the entire STARTUP-calculation: 57.6 MB


           ************************************************************
           *        Program running with 20 parallel MPI-processes    *
           *              working on a common directory               *
           ************************************************************
-------------------------------------------------------------------------------
                                 ORCA GUESS
                   Start orbitals & Density for SCF / CASSCF
-------------------------------------------------------------------------------

------------
SCF SETTINGS
------------
Hamiltonian:
 Density Functional     Method          .... DFT(GTOs)
 Exchange Functional    Exchange        .... TPSS
 Correlation Functional Correlation     .... TPSS
 LDA part of GGA corr.  LDAOpt          .... PW91-LDA
 Gradients option       PostSCFGGA      .... off
 Hybrid DFT is turned on
   Fraction HF Exchange ScalHFX         ....  0.100000
   Scaling of DF-GGA-X  ScalDFX         ....  0.900000
   Scaling of DF-GGA-C  ScalDFC         ....  1.000000
   Scaling of DF-LDA-C  ScalLDAC        ....  1.000000
   Perturbative correction              ....  0.000000
   NL short-range parameter             ....  5.200000
 RI-approximation to the Coulomb term is turned on
   Number of AuxJ basis functions       .... 1187
   RIJ-COSX (HFX calculated with COS-X)).... on


General Settings:
 Integral files         IntName         .... rf_mecn_freq_TP_C8_P_B
 Hartree-Fock type      HFTyp           .... UHF
 Total Charge           Charge          ....    0
 Multiplicity           Mult            ....    2
 Number of Electrons    NEL             ....  191
 Basis Dimension        Dim             ....  750
 Nuclear Repulsion      ENuc            ....   2672.3106092455 Eh

Convergence Acceleration:
 AO-DIIS                CNVDIIS         .... on
   Start iteration      DIISMaxIt       ....     0
   Startup error        DIISStart       ....  0.200000
   # of expansion vecs  DIISMaxEq       ....     5
   Bias factor          DIISBfac        ....   1.050
   Max. coefficient     DIISMaxC        ....  10.000
 MO-DIIS                CNVKDIIS        .... off
 Trust-Rad. Augm. Hess. CNVTRAH         .... auto
   Auto Start mean grad. ratio tolernc. ....  1.125000
   Auto Start start iteration           ....    50
   Auto Start num. interpolation iter.  ....    10
   Max. Number of Micro iterations      ....    24
   Max. Number of Macro iterations      .... Maxiter - #DIIS iter
   Number of Davidson start vectors     ....     2
   Converg. threshold    (grad. norm)   ....   1.000e-05
   Grad. Scal. Fac. for Micro threshold ....   0.100
   Minimum threshold for Micro iter.    ....   1.000e-02
   NR start threshold (gradient norm)   ....   1.000e-04
   Initial trust radius                 ....   0.400
   Minimum AH scaling param. (alpha)    ....   1.000
   Maximum AH scaling param. (alpha)    .... 1000.000
   Quad. conv. algorithm                .... NR
   White noise on init. David. guess    .... on
   Maximum white noise                  ....   0.010
   Pseudo random numbers                .... off
   Inactive MOs                         .... canonical
   Orbital update algorithm             .... Taylor
   Preconditioner                       .... Diag
   Full preconditioner red. dimension   ....   250
 SOSCF                  CNVSOSCF        .... on
   Start iteration      SOSCFMaxIt      ....   150
   Startup grad/error   SOSCFStart      ....  0.001000
   Hessian update       SOSCFHessUp     .... L-BFGS
 Level Shifting         CNVShift        .... on
   Level shift para.    LevelShift      ....    0.2500
   Turn off err/grad.   ShiftErr        ....    0.0000
 Zerner damping         CNVZerner       .... off
 Static damping         CNVDamp         .... on
   Fraction old density DampFac         ....    0.8500
   Max. Damping (<1)    DampMax         ....    0.9800
   Min. Damping (>=0)   DampMin         ....    0.0000
   Turn off err/grad.   DampErr         ....    0.0300

SCF Procedure:
 Maximum # iterations   MaxIter         ....  1500
 SCF integral mode      SCFMode         .... Direct
   Integral package                     .... SHARK and LIBINT hybrid scheme
 Reset frequency        DirectResetFreq ....    20
 Integral Threshold     Thresh          ....  2.500e-11 Eh
 Primitive CutOff       TCut            ....  2.500e-12 Eh

Convergence Tolerance:
 Convergence Check Mode ConvCheckMode   .... Total+1el-Energy
 Convergence forced     ConvForced      .... 0
 Energy Change          TolE            ....  1.000e-08 Eh
 1-El. energy change                    ....  1.000e-05 Eh
 Orbital Gradient       TolG            ....  1.000e-05
 Orbital Rotation angle TolX            ....  1.000e-05
 DIIS Error             TolErr          ....  5.000e-07

------------------------------
INITIAL GUESS: MODEL POTENTIAL
------------------------------
Loading Hartree-Fock densities                     ... done
Calculating cut-offs                               ... done
Initializing the effective Hamiltonian             ... done
Setting up the integral package (SHARK)            ... done
Starting the Coulomb interaction                   ... done (   0.1 sec)
Making the grid                                    ... done (   0.4 sec)
Mapping shells                                     ... done
Starting the XC term evaluation                    ... done (   0.1 sec)
  promolecular density results
     # of electrons  =    190.997098649
     EX              =   -197.534146613
     EC              =     -6.706929690
     EX+EC           =   -204.241076303
Transforming the Hamiltonian                       ... done (   0.0 sec)
Diagonalizing the Hamiltonian                      ... done (   0.1 sec)
Back transforming the eigenvectors                 ... done (   0.0 sec)
Now organizing SCF variables                       ... done
                      ------------------
                      INITIAL GUESS DONE (   1.0 sec)
                      ------------------
             **** ENERGY FILE WAS UPDATED (rf_mecn_freq_TP_C8_P_B.en.tmp) ****
Finished Guess after   1.7 sec
Maximum memory used throughout the entire GUESS-calculation: 46.8 MB


           ************************************************************
           *        Program running with 20 parallel MPI-processes    *
           *              working on a common directory               *
           ************************************************************

-------------------------------------------------------------------------------------------
                                      ORCA LEAN-SCF
                              memory conserving SCF solver
-------------------------------------------------------------------------------------------

--------------------
CPCM SOLVATION MODEL
--------------------
CPCM parameters:
  Epsilon                                         ...      35.6880
  Refrac                                          ...       1.3442
  Rsolv                                           ...       1.3000
  Surface type                                    ... GAUSSIAN VDW
  Discretization scheme                           ... Constant charge density
    Threshold for H atoms                         ...       5.0000 (charges/Ang^2)
    Threshold for non-H atoms                     ...       5.0000 (charges/Ang^2)
  Epsilon function type                           ...         CPCM
Solvent:                                          ... ACETONITRILE
SMD-CDS solvent descriptors:
  Soln                                            ...       1.3442
  Soln25                                          ...       1.3416
  Sola                                            ...       0.0700
  Solb                                            ...       0.3200
  Solg                                            ...      41.2500
  Solc                                            ...       0.0000
  Solh                                            ...       0.0000
Radii:
  Scheme                                          ... Element-dependent radii
  Radius for C  used is    3.4960 Bohr (=   1.8500 Ang.)
  Radius for O  used is    4.0969 Bohr (=   2.1680 Ang.)
  Radius for F  used is    3.2692 Bohr (=   1.7300 Ang.)
  Radius for H  used is    2.2677 Bohr (=   1.2000 Ang.)
Calculating surface                               ...        done! (  0.0s)
Cavity surface points                             ...         2126
Cavity Volume                                     ...    2109.2022
Cavity Surface-area                               ...    1094.7734
Calculating surface distance matrix               ...        done! (  0.0s)
Performing Cholesky decomposition & store         ...        done! (  0.1s)
Overall time for CPCM initialization              ...                 0.1s

----------------------------------------D-I-I-S--------------------------------------------
Iteration    Energy (Eh)           Delta-E    RMSDP     MaxDP     DIISErr   Damp  Time(sec)
-------------------------------------------------------------------------------------------
               ***  Starting incremental Fock matrix formation  ***
    1    -1854.0064312337231058     0.00e+00  1.80e-04  1.47e-02  1.35e-01  0.850   6.7
Warning: op=1 Small HOMO/LUMO gap (   0.067) - skipping pre-diagonalization
         Will do a full diagonalization
    2    -1854.1201601187417509    -1.14e-01  1.71e-04  1.39e-02  8.94e-02  0.850   4.8
                               ***Turning on AO-DIIS***
    3    -1854.1793953578485343    -5.92e-02  7.96e-05  1.04e-02  4.96e-02  0.850   4.7
    4    -1854.2146905585145760    -3.53e-02  5.21e-05  9.06e-03  3.74e-02  0.850   4.3
    5    -1854.2397812633685135    -2.51e-02  4.29e-05  8.33e-03  3.22e-02  0.850   4.1
    6    -1854.2597757145008472    -2.00e-02  3.84e-05  7.74e-03  2.83e-02  0.850   4.1
    7    -1854.2765517746661317    -1.68e-02  2.36e-04  4.82e-02  2.42e-02  0.000   3.9
    8    -1854.3654281829935826    -8.89e-02  2.85e-05  3.25e-03  5.28e-03  0.000   4.5
    9    -1854.3654769625013614    -4.88e-05  1.21e-05  1.27e-03  4.94e-03  0.000   3.9
                              *** Initializing SOSCF ***
---------------------------------------S-O-S-C-F--------------------------------------
Iteration    Energy (Eh)           Delta-E    RMSDP     MaxDP     MaxGrad    Time(sec)
--------------------------------------------------------------------------------------
   10    -1854.3657165148711101    -2.40e-04  5.46e-06  8.51e-04  9.09e-04     4.0
               *** Restarting incremental Fock matrix formation ***
   11    -1854.3657421085731585    -2.56e-05  4.59e-06  7.06e-04  3.89e-04     7.3
   12    -1854.3657399405533397     2.17e-06  2.46e-06  2.67e-04  8.09e-04     4.6
   13    -1854.3657448265207677    -4.89e-06  7.30e-07  4.90e-05  2.35e-05     4.3
   14    -1854.3657448271992507    -6.78e-10  3.59e-07  3.81e-05  2.15e-05     4.0
                 **** Energy Check signals convergence ****

               *****************************************************
               *                     SUCCESS                       *
               *           SCF CONVERGED AFTER  14 CYCLES          *
               *****************************************************

Recomputing exchange energy using gridx3       ... done (    9.399 sec)
Old exchange energy                            :    -19.914971224 Eh
New exchange energy                            :    -19.914990692 Eh
Exchange energy change after final integration :     -0.000019468 Eh
Total energy after final integration           :  -1854.365764295 Eh

SMD CDS free energy correction energy :                 3.56606     Kcal/mol
Total Energy after SMD CDS correction =             -1854.360081415 Eh
             **** ENERGY FILE WAS UPDATED (rf_mecn_freq_TP_C8_P_B.en.tmp) ****

----------------
TOTAL SCF ENERGY
----------------

Total Energy       :      -1854.36008141496882 Eh          -50459.70314 eV

Components:
Nuclear Repulsion  :       2672.31060924552139 Eh           72717.26855 eV
Electronic Energy  :      -4526.66459134400066 Eh         -123176.80572 eV
One Electron Energy:      -7896.01388997319191 Eh         -214861.46129 eV
Two Electron Energy:       3369.34929862919125 Eh           91684.65557 eV
CPCM Dielectric    :         -0.01176272871964 Eh              -0.32008 eV
SMD CDS (Gcds)     :          0.00568287983317 Eh               0.15464 eV

Virial components:
Potential Energy   :      -3702.42652826771155 Eh         -100748.14777 eV
Kinetic Energy     :       1848.06644685274273 Eh           50288.44463 eV
Virial Ratio       :          2.00340552395881

DFT components:
N(Alpha)           :       95.999981203996 electrons
N(Beta)            :       94.999961926188 electrons
N(Total)           :      190.999943130184 electrons
E(X)               :     -180.970150277458 Eh       
E(C)               :       -6.717415783526 Eh       
E(XC)              :     -187.687566060984 Eh       

CPCM Solvation Model Properties:
Surface-charge          :         -0.00886962983018
Corrected charge        :          0.00000000000000
Outlying charge corr.   :          0.00000433095643 Eh               0.00012 eV
Free-energy (cav+disp)  :          0.00568287983317 Eh               0.15464 eV

---------------
SCF CONVERGENCE
---------------

  Last Energy change         ...    6.7848e-10  Tolerance :   1.0000e-08
  Last MAX-Density change    ...    3.8090e-05  Tolerance :   1.0000e-07
  Last RMS-Density change    ...    3.5915e-07  Tolerance :   5.0000e-09
  Last DIIS Error            ...    9.0939e-04  Tolerance :   5.0000e-07
  Last Orbital Gradient      ...    2.1486e-05  Tolerance :   1.0000e-05
  Last Orbital Rotation      ...    2.8924e-05  Tolerance :   1.0000e-05


----------------------
UHF SPIN CONTAMINATION
----------------------

Warning: in a DFT calculation there is little theoretical justification to 
         calculate <S**2> as in Hartree-Fock theory. We will do it anyways
         but you should keep in mind that the values have only limited relevance

Expectation value of <S**2>     :     0.753173
Ideal value S*(S+1) for S=0.5   :     0.750000
Deviation                       :     0.003173

----------------
ORBITAL ENERGIES
----------------
                 SPIN UP ORBITALS
  NO   OCC          E(Eh)            E(eV) 
   0   1.0000     -24.666632      -671.2132 
   1   1.0000     -24.665761      -671.1895 
   2   1.0000     -24.661706      -671.0791 
   3   1.0000     -24.661557      -671.0751 
   4   1.0000     -24.661220      -671.0659 
   5   1.0000     -24.661046      -671.0612 
   6   1.0000     -24.660993      -671.0597 
   7   1.0000     -24.660735      -671.0527 
   8   1.0000     -24.660041      -671.0338 
   9   1.0000     -24.659634      -671.0228 
  10   1.0000     -24.656228      -670.9301 
  11   1.0000     -24.651870      -670.8115 
  12   1.0000     -24.651336      -670.7969 
  13   1.0000     -24.649561      -670.7487 
  14   1.0000     -19.133576      -520.6511 
  15   1.0000     -19.080053      -519.1946 
  16   1.0000     -10.346801      -281.5508 
  17   1.0000     -10.346405      -281.5400 
  18   1.0000     -10.344424      -281.4861 
  19   1.0000     -10.342470      -281.4329 
  20   1.0000     -10.341105      -281.3958 
  21   1.0000     -10.333110      -281.1782 
  22   1.0000     -10.315860      -280.7088 
  23   1.0000     -10.281158      -279.7645 
  24   1.0000      -1.306127       -35.5415 
  25   1.0000      -1.296755       -35.2865 
  26   1.0000      -1.289575       -35.0911 
  27   1.0000      -1.280217       -34.8365 
  28   1.0000      -1.278601       -34.7925 
  29   1.0000      -1.271552       -34.6007 
  30   1.0000      -1.271230       -34.5919 
  31   1.0000      -1.238137       -33.6914 
  32   1.0000      -1.234219       -33.5848 
  33   1.0000      -1.231094       -33.4998 
  34   1.0000      -1.225338       -33.3431 
  35   1.0000      -1.222760       -33.2730 
  36   1.0000      -1.217112       -33.1193 
  37   1.0000      -1.215580       -33.0776 
  38   1.0000      -1.119543       -30.4643 
  39   1.0000      -1.035754       -28.1843 
  40   1.0000      -0.829367       -22.5682 
  41   1.0000      -0.814170       -22.1547 
  42   1.0000      -0.790094       -21.4995 
  43   1.0000      -0.754982       -20.5441 
  44   1.0000      -0.711081       -19.3495 
  45   1.0000      -0.670345       -18.2410 
  46   1.0000      -0.653944       -17.7947 
  47   1.0000      -0.642812       -17.4918 
  48   1.0000      -0.620665       -16.8891 
  49   1.0000      -0.619007       -16.8440 
  50   1.0000      -0.609064       -16.5735 
  51   1.0000      -0.601776       -16.3752 
  52   1.0000      -0.596927       -16.2432 
  53   1.0000      -0.594987       -16.1904 
  54   1.0000      -0.584456       -15.9038 
  55   1.0000      -0.579599       -15.7717 
  56   1.0000      -0.576218       -15.6797 
  57   1.0000      -0.572783       -15.5862 
  58   1.0000      -0.563013       -15.3204 
  59   1.0000      -0.561680       -15.2841 
  60   1.0000      -0.555105       -15.1052 
  61   1.0000      -0.546497       -14.8709 
  62   1.0000      -0.528895       -14.3920 
  63   1.0000      -0.498094       -13.5538 
  64   1.0000      -0.487732       -13.2719 
  65   1.0000      -0.486101       -13.2275 
  66   1.0000      -0.478672       -13.0253 
  67   1.0000      -0.476846       -12.9756 
  68   1.0000      -0.473047       -12.8723 
  69   1.0000      -0.466627       -12.6976 
  70   1.0000      -0.462595       -12.5879 
  71   1.0000      -0.459424       -12.5016 
  72   1.0000      -0.458681       -12.4813 
  73   1.0000      -0.456232       -12.4147 
  74   1.0000      -0.452129       -12.3030 
  75   1.0000      -0.449808       -12.2399 
  76   1.0000      -0.445278       -12.1166 
  77   1.0000      -0.440461       -11.9855 
  78   1.0000      -0.436246       -11.8708 
  79   1.0000      -0.432823       -11.7777 
  80   1.0000      -0.428157       -11.6507 
  81   1.0000      -0.427559       -11.6345 
  82   1.0000      -0.424401       -11.5485 
  83   1.0000      -0.422553       -11.4983 
  84   1.0000      -0.420057       -11.4303 
  85   1.0000      -0.418597       -11.3906 
  86   1.0000      -0.415457       -11.3052 
  87   1.0000      -0.414209       -11.2712 
  88   1.0000      -0.412156       -11.2153 
  89   1.0000      -0.406281       -11.0555 
  90   1.0000      -0.390953       -10.6384 
  91   1.0000      -0.363726        -9.8975 
  92   1.0000      -0.340513        -9.2658 
  93   1.0000      -0.331674        -9.0253 
  94   1.0000      -0.296254        -8.0615 
  95   1.0000      -0.250713        -6.8222 
  96   0.0000      -0.066641        -1.8134 
  97   0.0000      -0.021071        -0.5734 
  98   0.0000      -0.006569        -0.1788 
  99   0.0000       0.018704         0.5090 
 100   0.0000       0.030654         0.8341 
 101   0.0000       0.041659         1.1336 
 102   0.0000       0.066504         1.8097 
 103   0.0000       0.075606         2.0573 
 104   0.0000       0.100591         2.7372 
 105   0.0000       0.107709         2.9309 
 106   0.0000       0.117117         3.1869 

                 SPIN DOWN ORBITALS
  NO   OCC          E(Eh)            E(eV) 
   0   1.0000     -24.662914      -671.1120 
   1   1.0000     -24.662005      -671.0873 
   2   1.0000     -24.661707      -671.0792 
   3   1.0000     -24.661551      -671.0749 
   4   1.0000     -24.661218      -671.0659 
   5   1.0000     -24.661022      -671.0605 
   6   1.0000     -24.660993      -671.0597 
   7   1.0000     -24.660532      -671.0472 
   8   1.0000     -24.660041      -671.0338 
   9   1.0000     -24.659634      -671.0228 
  10   1.0000     -24.656253      -670.9308 
  11   1.0000     -24.651336      -670.7969 
  12   1.0000     -24.650341      -670.7699 
  13   1.0000     -24.649561      -670.7487 
  14   1.0000     -19.133576      -520.6511 
  15   1.0000     -19.080054      -519.1947 
  16   1.0000     -10.346819      -281.5513 
  17   1.0000     -10.346413      -281.5402 
  18   1.0000     -10.344513      -281.4885 
  19   1.0000     -10.342472      -281.4330 
  20   1.0000     -10.340249      -281.3725 
  21   1.0000     -10.333111      -281.1782 
  22   1.0000     -10.299568      -280.2655 
  23   1.0000     -10.281159      -279.7645 
  24   1.0000      -1.305838       -35.5337 
  25   1.0000      -1.294365       -35.2215 
  26   1.0000      -1.285730       -34.9865 
  27   1.0000      -1.279152       -34.8075 
  28   1.0000      -1.278561       -34.7914 
  29   1.0000      -1.271340       -34.5949 
  30   1.0000      -1.269355       -34.5409 
  31   1.0000      -1.238010       -33.6880 
  32   1.0000      -1.231264       -33.5044 
  33   1.0000      -1.227637       -33.4057 
  34   1.0000      -1.225071       -33.3359 
  35   1.0000      -1.222730       -33.2722 
  36   1.0000      -1.215581       -33.0776 
  37   1.0000      -1.215394       -33.0726 
  38   1.0000      -1.119543       -30.4643 
  39   1.0000      -1.035754       -28.1843 
  40   1.0000      -0.828643       -22.5485 
  41   1.0000      -0.811774       -22.0895 
  42   1.0000      -0.786466       -21.4008 
  43   1.0000      -0.750641       -20.4260 
  44   1.0000      -0.706627       -19.2283 
  45   1.0000      -0.666846       -18.1458 
  46   1.0000      -0.650340       -17.6967 
  47   1.0000      -0.642681       -17.4883 
  48   1.0000      -0.620049       -16.8724 
  49   1.0000      -0.617454       -16.8018 
  50   1.0000      -0.608670       -16.5628 
  51   1.0000      -0.600318       -16.3355 
  52   1.0000      -0.595441       -16.2028 
  53   1.0000      -0.593204       -16.1419 
  54   1.0000      -0.582238       -15.8435 
  55   1.0000      -0.578418       -15.7396 
  56   1.0000      -0.573084       -15.5944 
  57   1.0000      -0.570294       -15.5185 
  58   1.0000      -0.561189       -15.2707 
  59   1.0000      -0.559710       -15.2305 
  60   1.0000      -0.553542       -15.0627 
  61   1.0000      -0.546373       -14.8676 
  62   1.0000      -0.499583       -13.5944 
  63   1.0000      -0.498088       -13.5537 
  64   1.0000      -0.487024       -13.2526 
  65   1.0000      -0.485932       -13.2229 
  66   1.0000      -0.476963       -12.9788 
  67   1.0000      -0.476458       -12.9651 
  68   1.0000      -0.472221       -12.8498 
  69   1.0000      -0.466048       -12.6818 
  70   1.0000      -0.462059       -12.5733 
  71   1.0000      -0.459152       -12.4942 
  72   1.0000      -0.457613       -12.4523 
  73   1.0000      -0.453781       -12.3480 
  74   1.0000      -0.449543       -12.2327 
  75   1.0000      -0.444982       -12.1086 
  76   1.0000      -0.440423       -11.9845 
  77   1.0000      -0.438688       -11.9373 
  78   1.0000      -0.434223       -11.8158 
  79   1.0000      -0.432698       -11.7743 
  80   1.0000      -0.427520       -11.6334 
  81   1.0000      -0.425612       -11.5815 
  82   1.0000      -0.424298       -11.5457 
  83   1.0000      -0.421525       -11.4703 
  84   1.0000      -0.419912       -11.4264 
  85   1.0000      -0.417458       -11.3596 
  86   1.0000      -0.414998       -11.2927 
  87   1.0000      -0.413671       -11.2566 
  88   1.0000      -0.411523       -11.1981 
  89   1.0000      -0.405514       -11.0346 
  90   1.0000      -0.389495       -10.5987 
  91   1.0000      -0.361809        -9.8453 
  92   1.0000      -0.340468        -9.2646 
  93   1.0000      -0.330234        -8.9861 
  94   1.0000      -0.296210        -8.0603 
  95   0.0000      -0.110960        -3.0194 
  96   0.0000      -0.066540        -1.8106 
  97   0.0000      -0.018986        -0.5166 
  98   0.0000      -0.004534        -0.1234 
  99   0.0000       0.021981         0.5981 
 100   0.0000       0.034691         0.9440 
 101   0.0000       0.044153         1.2015 
 102   0.0000       0.071328         1.9409 
 103   0.0000       0.080465         2.1896 
 104   0.0000       0.101404         2.7594 
 105   0.0000       0.110795         3.0149 
*Only the first 10 virtual orbitals were printed.

                    ********************************
                    * MULLIKEN POPULATION ANALYSIS *
                    ********************************

--------------------------------------------
MULLIKEN ATOMIC CHARGES AND SPIN POPULATIONS
--------------------------------------------
   0 C :    0.222989   -0.000008
   1 O :   -0.337996   -0.000001
   2 O :   -0.287687   -0.000005
   3 C :    0.376532   -0.000025
   4 C :    0.266498   -0.000084
   5 C :    0.290591   -0.000283
   6 C :    0.299446   -0.000648
   7 C :    0.281263   -0.007024
   8 C :    0.346409    0.012951
   9 C :    0.231741    0.835554
  10 F :   -0.158752    0.000001
  11 F :   -0.154469   -0.000001
  12 F :   -0.151793    0.000003
  13 F :   -0.153296   -0.000004
  14 F :   -0.148753    0.000011
  15 F :   -0.147144   -0.000010
  16 F :   -0.147247    0.000028
  17 F :   -0.148089   -0.000032
  18 F :   -0.150751    0.000638
  19 F :   -0.148580    0.002233
  20 F :   -0.152996   -0.001447
  21 F :   -0.158081    0.031424
  22 F :   -0.127426    0.062993
  23 F :   -0.125021    0.063738
  24 H :    0.382613   -0.000001
Sum of atomic charges         :   -0.0000000
Sum of atomic spin populations:    1.0000000

-----------------------------------------------------
MULLIKEN REDUCED ORBITAL CHARGES AND SPIN POPULATIONS
-----------------------------------------------------
CHARGE
  0 C s       :     3.093251  s :     3.093251
      pz      :     0.765225  p :     2.389854
      px      :     0.859238
      py      :     0.765390
      dz2     :     0.052046  d :     0.269815
      dxz     :     0.034874
      dyz     :     0.063561
      dx2y2   :     0.065569
      dxy     :     0.053765
      f0      :     0.003164  f :     0.024092
      f+1     :     0.002402
      f-1     :     0.003606
      f+2     :     0.003839
      f-2     :     0.003740
      f+3     :     0.002832
      f-3     :     0.004509

  1 O s       :     3.773153  s :     3.773153
      pz      :     1.447043  p :     4.531532
      px      :     1.488634
      py      :     1.595855
      dz2     :     0.005376  d :     0.031488
      dxz     :     0.004747
      dyz     :     0.008799
      dx2y2   :     0.005805
      dxy     :     0.006761
      f0      :     0.000323  f :     0.001823
      f+1     :     0.000175
      f-1     :     0.000302
      f+2     :     0.000385
      f-2     :     0.000401
      f+3     :     0.000036
      f-3     :     0.000201

  2 O s       :     3.805228  s :     3.805228
      pz      :     1.562387  p :     4.450149
      px      :     1.544304
      py      :     1.343458
      dz2     :     0.003833  d :     0.030336
      dxz     :     0.003243
      dyz     :     0.006827
      dx2y2   :     0.008975
      dxy     :     0.007457
      f0      :     0.000180  f :     0.001973
      f+1     :     0.000116
      f-1     :     0.000317
      f+2     :     0.000195
      f-2     :     0.000319
      f+3     :     0.000324
      f-3     :     0.000523

  3 C s       :     3.038089  s :     3.038089
      pz      :     0.674527  p :     2.263622
      px      :     0.948767
      py      :     0.640328
      dz2     :     0.048656  d :     0.293685
      dxz     :     0.059716
      dyz     :     0.079926
      dx2y2   :     0.043370
      dxy     :     0.062017
      f0      :     0.005512  f :     0.028073
      f+1     :     0.004813
      f-1     :     0.005009
      f+2     :     0.003719
      f-2     :     0.001645
      f+3     :     0.004822
      f-3     :     0.002554

  4 C s       :     3.145378  s :     3.145378
      pz      :     0.637831  p :     2.257346
      px      :     0.942622
      py      :     0.676894
      dz2     :     0.055850  d :     0.302314
      dxz     :     0.062790
      dyz     :     0.078961
      dx2y2   :     0.040679
      dxy     :     0.064035
      f0      :     0.004116  f :     0.028464
      f+1     :     0.005261
      f-1     :     0.007559
      f+2     :     0.002700
      f-2     :     0.001793
      f+3     :     0.004613
      f-3     :     0.002423

  5 C s       :     3.131379  s :     3.131379
      pz      :     0.606721  p :     2.245310
      px      :     0.924859
      py      :     0.713730
      dz2     :     0.071627  d :     0.304219
      dxz     :     0.065495
      dyz     :     0.067811
      dx2y2   :     0.037749
      dxy     :     0.061537
      f0      :     0.004087  f :     0.028501
      f+1     :     0.004881
      f-1     :     0.007677
      f+2     :     0.002815
      f-2     :     0.003498
      f+3     :     0.003126
      f-3     :     0.002417

  6 C s       :     3.123366  s :     3.123366
      pz      :     0.591356  p :     2.244622
      px      :     0.925138
      py      :     0.728128
      dz2     :     0.082325  d :     0.304072
      dxz     :     0.064656
      dyz     :     0.058411
      dx2y2   :     0.035703
      dxy     :     0.062977
      f0      :     0.005967  f :     0.028494
      f+1     :     0.004146
      f-1     :     0.004924
      f+2     :     0.003961
      f-2     :     0.005120
      f+3     :     0.002334
      f-3     :     0.002043

  7 C s       :     3.138313  s :     3.138313
      pz      :     0.591138  p :     2.249665
      px      :     0.927851
      py      :     0.730676
      dz2     :     0.081320  d :     0.302254
      dxz     :     0.064289
      dyz     :     0.058342
      dx2y2   :     0.035548
      dxy     :     0.062756
      f0      :     0.005918  f :     0.028505
      f+1     :     0.004173
      f-1     :     0.004988
      f+2     :     0.003933
      f-2     :     0.005083
      f+3     :     0.002367
      f-3     :     0.002043

  8 C s       :     3.069198  s :     3.069198
      pz      :     0.604420  p :     2.257924
      px      :     0.937500
      py      :     0.716003
      dz2     :     0.069528  d :     0.298485
      dxz     :     0.066567
      dyz     :     0.068980
      dx2y2   :     0.034309
      dxy     :     0.059102
      f0      :     0.004229  f :     0.027983
      f+1     :     0.004410
      f-1     :     0.007309
      f+2     :     0.002840
      f-2     :     0.003817
      f+3     :     0.003034
      f-3     :     0.002344

  9 C s       :     3.230658  s :     3.230658
      pz      :     0.944209  p :     2.292977
      px      :     0.736032
      py      :     0.612736
      dz2     :     0.027258  d :     0.217508
      dxz     :     0.035651
      dyz     :     0.037881
      dx2y2   :     0.061370
      dxy     :     0.055348
      f0      :     0.002587  f :     0.027116
      f+1     :     0.001523
      f-1     :     0.004417
      f+2     :     0.002168
      f-2     :     0.005128
      f+3     :     0.007067
      f-3     :     0.004227

 10 F s       :     3.918401  s :     3.918401
      pz      :     1.885621  p :     5.223991
      px      :     1.899238
      py      :     1.439132
      dz2     :     0.002192  d :     0.015661
      dxz     :     0.000165
      dyz     :     0.003230
      dx2y2   :     0.006176
      dxy     :     0.003898
      f0      :     0.000058  f :     0.000699
      f+1     :     0.000013
      f-1     :     0.000140
      f+2     :     0.000098
      f-2     :     0.000008
      f+3     :     0.000159
      f-3     :     0.000223

 11 F s       :     3.915818  s :     3.915818
      pz      :     1.456148  p :     5.222097
      px      :     1.902066
      py      :     1.863883
      dz2     :     0.007654  d :     0.015835
      dxz     :     0.003668
      dyz     :     0.003826
      dx2y2   :     0.000362
      dxy     :     0.000326
      f0      :     0.000307  f :     0.000720
      f+1     :     0.000153
      f-1     :     0.000203
      f+2     :     0.000030
      f-2     :     0.000024
      f+3     :     0.000002
      f-3     :     0.000002

 12 F s       :     3.919050  s :     3.919050
      pz      :     1.853450  p :     5.216067
      px      :     1.901280
      py      :     1.461337
      dz2     :     0.002110  d :     0.015969
      dxz     :     0.000349
      dyz     :     0.004127
      dx2y2   :     0.005743
      dxy     :     0.003640
      f0      :     0.000073  f :     0.000707
      f+1     :     0.000007
      f-1     :     0.000125
      f+2     :     0.000148
      f-2     :     0.000027
      f+3     :     0.000135
      f-3     :     0.000192

 13 F s       :     3.919265  s :     3.919265
      pz      :     1.433430  p :     5.217399
      px      :     1.898643
      py      :     1.885326
      dz2     :     0.008408  d :     0.015926
      dxz     :     0.003909
      dyz     :     0.003258
      dx2y2   :     0.000206
      dxy     :     0.000146
      f0      :     0.000366  f :     0.000705
      f+1     :     0.000169
      f-1     :     0.000153
      f+2     :     0.000009
      f-2     :     0.000006
      f+3     :     0.000001
      f-3     :     0.000001

 14 F s       :     3.918681  s :     3.918681
      pz      :     1.757776  p :     5.213315
      px      :     1.893426
      py      :     1.562113
      dz2     :     0.002189  d :     0.016046
      dxz     :     0.001192
      dyz     :     0.005756
      dx2y2   :     0.003881
      dxy     :     0.003029
      f0      :     0.000080  f :     0.000711
      f+1     :     0.000007
      f-1     :     0.000145
      f+2     :     0.000198
      f-2     :     0.000094
      f+3     :     0.000088
      f-3     :     0.000098

 15 F s       :     3.918441  s :     3.918441
      pz      :     1.459883  p :     5.211879
      px      :     1.899307
      py      :     1.852689
      dz2     :     0.007602  d :     0.016109
      dxz     :     0.003593
      dyz     :     0.004096
      dx2y2   :     0.000366
      dxy     :     0.000452
      f0      :     0.000308  f :     0.000715
      f+1     :     0.000138
      f-1     :     0.000206
      f+2     :     0.000025
      f-2     :     0.000034
      f+3     :     0.000002
      f-3     :     0.000001

 16 F s       :     3.918527  s :     3.918527
      pz      :     1.647491  p :     5.211897
      px      :     1.900242
      py      :     1.664163
      dz2     :     0.003290  d :     0.016109
      dxz     :     0.001984
      dyz     :     0.006468
      dx2y2   :     0.002330
      dxy     :     0.002038
      f0      :     0.000088  f :     0.000714
      f+1     :     0.000026
      f-1     :     0.000236
      f+2     :     0.000179
      f-2     :     0.000106
      f+3     :     0.000039
      f-3     :     0.000040

 17 F s       :     3.918685  s :     3.918685
      pz      :     1.537745  p :     5.212642
      px      :     1.895848
      py      :     1.779050
      dz2     :     0.005427  d :     0.016051
      dxz     :     0.003003
      dyz     :     0.005471
      dx2y2   :     0.001010
      dxy     :     0.001141
      f0      :     0.000169  f :     0.000711
      f+1     :     0.000086
      f-1     :     0.000263
      f+2     :     0.000087
      f-2     :     0.000085
      f+3     :     0.000010
      f-3     :     0.000009

 18 F s       :     3.919017  s :     3.919017
      pz      :     1.653055  p :     5.215053
      px      :     1.900757
      py      :     1.661241
      dz2     :     0.003185  d :     0.015975
      dxz     :     0.001931
      dyz     :     0.006427
      dx2y2   :     0.002370
      dxy     :     0.002063
      f0      :     0.000086  f :     0.000706
      f+1     :     0.000024
      f-1     :     0.000230
      f+2     :     0.000180
      f-2     :     0.000105
      f+3     :     0.000040
      f-3     :     0.000041

 19 F s       :     3.918506  s :     3.918506
      pz      :     1.535486  p :     5.213321
      px      :     1.895212
      py      :     1.782623
      dz2     :     0.005517  d :     0.016040
      dxz     :     0.003030
      dyz     :     0.005391
      dx2y2   :     0.001006
      dxy     :     0.001096
      f0      :     0.000173  f :     0.000713
      f+1     :     0.000090
      f-1     :     0.000261
      f+2     :     0.000085
      f-2     :     0.000084
      f+3     :     0.000010
      f-3     :     0.000009

 20 F s       :     3.917833  s :     3.917833
      pz      :     1.754183  p :     5.218715
      px      :     1.898580
      py      :     1.565952
      dz2     :     0.002140  d :     0.015745
      dxz     :     0.001150
      dyz     :     0.005821
      dx2y2   :     0.003780
      dxy     :     0.002853
      f0      :     0.000080  f :     0.000703
      f+1     :     0.000006
      f-1     :     0.000147
      f+2     :     0.000203
      f-2     :     0.000089
      f+3     :     0.000083
      f-3     :     0.000095

 21 F s       :     3.917782  s :     3.917782
      pz      :     1.472899  p :     5.224390
      px      :     1.901464
      py      :     1.850028
      dz2     :     0.007089  d :     0.015232
      dxz     :     0.003269
      dyz     :     0.004056
      dx2y2   :     0.000343
      dxy     :     0.000475
      f0      :     0.000280  f :     0.000676
      f+1     :     0.000122
      f-1     :     0.000205
      f+2     :     0.000028
      f-2     :     0.000037
      f+3     :     0.000002
      f-3     :     0.000001

 22 F s       :     3.911818  s :     3.911818
      pz      :     1.769889  p :     5.198081
      px      :     1.877397
      py      :     1.550796
      dz2     :     0.002627  d :     0.016771
      dxz     :     0.000857
      dyz     :     0.005543
      dx2y2   :     0.004572
      dxy     :     0.003173
      f0      :     0.000078  f :     0.000756
      f+1     :     0.000008
      f-1     :     0.000154
      f+2     :     0.000179
      f-2     :     0.000079
      f+3     :     0.000117
      f-3     :     0.000140

 23 F s       :     3.911735  s :     3.911735
      pz      :     1.857870  p :     5.195720
      px      :     1.599304
      py      :     1.738546
      dz2     :     0.002142  d :     0.016801
      dxz     :     0.003121
      dyz     :     0.001609
      dx2y2   :     0.003763
      dxy     :     0.006166
      f0      :     0.000078  f :     0.000764
      f+1     :     0.000099
      f-1     :     0.000059
      f+2     :     0.000014
      f-2     :     0.000110
      f+3     :     0.000169
      f-3     :     0.000235

 24 H s       :     0.575681  s :     0.575681
      pz      :     0.012703  p :     0.041706
      px      :     0.017721
      py      :     0.011282


SPIN
  0 C s       :    -0.000003  s :    -0.000003
      pz      :    -0.000001  p :    -0.000004
      px      :    -0.000001
      py      :    -0.000002
      dz2     :    -0.000000  d :    -0.000001
      dxz     :    -0.000000
      dyz     :    -0.000000
      dx2y2   :    -0.000000
      dxy     :    -0.000000
      f0      :    -0.000000  f :    -0.000000
      f+1     :    -0.000000
      f-1     :     0.000000
      f+2     :     0.000000
      f-2     :    -0.000000
      f+3     :    -0.000000
      f-3     :    -0.000000

  1 O s       :    -0.000000  s :    -0.000000
      pz      :    -0.000001  p :    -0.000001
      px      :     0.000000
      py      :     0.000000
      dz2     :    -0.000000  d :    -0.000000
      dxz     :    -0.000000
      dyz     :    -0.000000
      dx2y2   :    -0.000000
      dxy     :    -0.000000
      f0      :    -0.000000  f :    -0.000000
      f+1     :     0.000000
      f-1     :    -0.000000
      f+2     :    -0.000000
      f-2     :    -0.000000
      f+3     :    -0.000000
      f-3     :    -0.000000

  2 O s       :    -0.000000  s :    -0.000000
      pz      :    -0.000005  p :    -0.000005
      px      :     0.000002
      py      :    -0.000001
      dz2     :     0.000000  d :     0.000000
      dxz     :     0.000000
      dyz     :     0.000000
      dx2y2   :     0.000000
      dxy     :    -0.000000
      f0      :     0.000000  f :     0.000000
      f+1     :     0.000000
      f-1     :     0.000000
      f+2     :     0.000000
      f-2     :     0.000000
      f+3     :    -0.000000
      f-3     :    -0.000000

  3 C s       :     0.000000  s :     0.000000
      pz      :    -0.000006  p :    -0.000023
      px      :    -0.000013
      py      :    -0.000004
      dz2     :    -0.000000  d :    -0.000002
      dxz     :    -0.000000
      dyz     :    -0.000000
      dx2y2   :    -0.000001
      dxy     :    -0.000000
      f0      :     0.000000  f :    -0.000000
      f+1     :     0.000000
      f-1     :     0.000000
      f+2     :    -0.000000
      f-2     :    -0.000000
      f+3     :    -0.000000
      f-3     :     0.000000

  4 C s       :    -0.000020  s :    -0.000020
      pz      :    -0.000005  p :    -0.000055
      px      :    -0.000048
      py      :    -0.000002
      dz2     :    -0.000001  d :    -0.000009
      dxz     :     0.000000
      dyz     :    -0.000000
      dx2y2   :    -0.000005
      dxy     :    -0.000003
      f0      :     0.000000  f :    -0.000000
      f+1     :     0.000000
      f-1     :    -0.000000
      f+2     :    -0.000000
      f-2     :    -0.000000
      f+3     :    -0.000000
      f-3     :    -0.000000

  5 C s       :    -0.000089  s :    -0.000089
      pz      :    -0.000028  p :    -0.000177
      px      :    -0.000070
      py      :    -0.000079
      dz2     :     0.000001  d :    -0.000016
      dxz     :    -0.000000
      dyz     :     0.000000
      dx2y2   :    -0.000013
      dxy     :    -0.000003
      f0      :     0.000000  f :    -0.000001
      f+1     :     0.000000
      f-1     :    -0.000000
      f+2     :    -0.000000
      f-2     :     0.000000
      f+3     :    -0.000001
      f-3     :     0.000000

  6 C s       :    -0.000158  s :    -0.000158
      pz      :     0.000301  p :    -0.000366
      px      :    -0.000436
      py      :    -0.000231
      dz2     :     0.000001  d :    -0.000121
      dxz     :     0.000003
      dyz     :    -0.000025
      dx2y2   :    -0.000045
      dxy     :    -0.000055
      f0      :    -0.000000  f :    -0.000004
      f+1     :     0.000001
      f-1     :     0.000000
      f+2     :    -0.000000
      f-2     :     0.000000
      f+3     :    -0.000004
      f-3     :    -0.000001

  7 C s       :     0.001862  s :     0.001862
      pz      :    -0.000721  p :    -0.008354
      px      :    -0.005110
      py      :    -0.002524
      dz2     :    -0.000152  d :    -0.000562
      dxz     :     0.000008
      dyz     :    -0.000084
      dx2y2   :    -0.000350
      dxy     :     0.000016
      f0      :     0.000008  f :     0.000031
      f+1     :     0.000006
      f-1     :     0.000004
      f+2     :     0.000012
      f-2     :    -0.000001
      f+3     :    -0.000002
      f-3     :     0.000003

  8 C s       :     0.002786  s :     0.002786
      pz      :    -0.007768  p :    -0.001054
      px      :     0.007257
      py      :    -0.000544
      dz2     :     0.004671  d :     0.010271
      dxz     :     0.001801
      dyz     :     0.002402
      dx2y2   :     0.001168
      dxy     :     0.000228
      f0      :     0.000093  f :     0.000948
      f+1     :     0.000468
      f-1     :     0.000084
      f+2     :    -0.000003
      f-2     :     0.000163
      f+3     :     0.000069
      f-3     :     0.000075

  9 C s       :     0.202929  s :     0.202929
      pz      :     0.571830  p :     0.631943
      px      :     0.011815
      py      :     0.048298
      dz2     :     0.000293  d :     0.002397
      dxz     :     0.002725
      dyz     :     0.000114
      dx2y2   :    -0.000351
      dxy     :    -0.000384
      f0      :    -0.000523  f :    -0.001716
      f+1     :    -0.000386
      f-1     :    -0.000551
      f+2     :    -0.000203
      f-2     :     0.000083
      f+3     :    -0.000026
      f-3     :    -0.000111

 10 F s       :    -0.000000  s :    -0.000000
      pz      :     0.000000  p :     0.000001
      px      :    -0.000000
      py      :     0.000001
      dz2     :    -0.000000  d :    -0.000000
      dxz     :    -0.000000
      dyz     :    -0.000000
      dx2y2   :    -0.000000
      dxy     :    -0.000000
      f0      :     0.000000  f :    -0.000000
      f+1     :    -0.000000
      f-1     :    -0.000000
      f+2     :    -0.000000
      f-2     :    -0.000000
      f+3     :    -0.000000
      f-3     :    -0.000000

 11 F s       :    -0.000000  s :    -0.000000
      pz      :     0.000001  p :    -0.000001
      px      :    -0.000001
      py      :    -0.000001
      dz2     :    -0.000000  d :    -0.000000
      dxz     :    -0.000000
      dyz     :    -0.000000
      dx2y2   :    -0.000000
      dxy     :    -0.000000
      f0      :     0.000000  f :    -0.000000
      f+1     :    -0.000000
      f-1     :    -0.000000
      f+2     :    -0.000000
      f-2     :    -0.000000
      f+3     :    -0.000000
      f-3     :     0.000000

 12 F s       :    -0.000001  s :    -0.000001
      pz      :     0.000000  p :     0.000004
      px      :     0.000002
      py      :     0.000002
      dz2     :    -0.000000  d :    -0.000000
      dxz     :    -0.000000
      dyz     :    -0.000000
      dx2y2   :    -0.000000
      dxy     :    -0.000000
      f0      :    -0.000000  f :    -0.000000
      f+1     :    -0.000000
      f-1     :    -0.000000
      f+2     :    -0.000000
      f-2     :    -0.000000
      f+3     :    -0.000000
      f-3     :    -0.000000

 13 F s       :    -0.000000  s :    -0.000000
      pz      :     0.000002  p :    -0.000003
      px      :    -0.000003
      py      :    -0.000002
      dz2     :    -0.000000  d :    -0.000000
      dxz     :    -0.000000
      dyz     :    -0.000000
      dx2y2   :    -0.000000
      dxy     :     0.000000
      f0      :     0.000000  f :    -0.000000
      f+1     :    -0.000000
      f-1     :    -0.000000
      f+2     :    -0.000000
      f-2     :    -0.000000
      f+3     :    -0.000000
      f-3     :    -0.000000

 14 F s       :    -0.000012  s :    -0.000012
      pz      :     0.000008  p :     0.000024
      px      :     0.000004
      py      :     0.000011
      dz2     :     0.000000  d :    -0.000000
      dxz     :    -0.000000
      dyz     :    -0.000000
      dx2y2   :    -0.000000
      dxy     :     0.000000
      f0      :    -0.000000  f :    -0.000000
      f+1     :    -0.000000
      f-1     :    -0.000000
      f+2     :    -0.000000
      f-2     :    -0.000000
      f+3     :    -0.000000
      f-3     :    -0.000000

 15 F s       :    -0.000001  s :    -0.000001
      pz      :     0.000006  p :    -0.000008
[...]
 11:     61.00   0.000163    0.82  0.000832  ( 0.021628 -0.004469  0.018559)
 12:     61.92   0.000029    0.15  0.000146  ( 0.008378  0.004798  0.007251)
 13:     70.85   0.000105    0.53  0.000461  ( 0.018332  0.009709  0.005507)
 14:    111.12   0.000154    0.78  0.000432  (-0.014209  0.015034  0.001900)
 15:    132.58   0.000020    0.10  0.000047  ( 0.004237  0.000717  0.005342)
 16:    151.27   0.000084    0.42  0.000172  ( 0.012453 -0.000568  0.004109)
 17:    176.99   0.003054   15.43  0.005385  (-0.002213  0.004022  0.073239)
 18:    191.24   0.000170    0.86  0.000278  (-0.014859  0.007075  0.002594)
 19:    195.75   0.000342    1.73  0.000546  (-0.008973 -0.021566  0.000039)
 20:    198.45   0.000216    1.09  0.000340  (-0.004086  0.014742 -0.010291)
 21:    216.19   0.000226    1.14  0.000326  ( 0.015849 -0.000833 -0.008608)
 22:    230.11   0.000024    0.12  0.000033  ( 0.001858 -0.004673  0.002798)
 23:    241.92   0.000064    0.32  0.000082  (-0.004609 -0.005197  0.005804)
 24:    246.97   0.000014    0.07  0.000018  ( 0.001515  0.003899 -0.000336)
 25:    252.33   0.000424    2.14  0.000524  ( 0.021225  0.007086 -0.004809)
 26:    282.08   0.001958    9.89  0.002166  (-0.043543  0.016412 -0.000679)
 27:    299.17   0.000201    1.02  0.000210  (-0.012909  0.003390  0.005629)
 28:    309.98   0.000111    0.56  0.000112  ( 0.003150 -0.004493  0.009039)
 29:    329.56   0.000035    0.17  0.000033  ( 0.001936  0.002791  0.004605)
 30:    347.64   0.000128    0.65  0.000115  ( 0.006218  0.007560  0.004378)
 31:    356.77   0.000184    0.93  0.000161  (-0.005526 -0.008362 -0.007764)
 32:    360.61   0.000324    1.64  0.000280  (-0.009830  0.011647  0.006935)
 33:    365.72   0.000064    0.32  0.000054  ( 0.005282 -0.003912 -0.003322)
 34:    367.18   0.000988    4.99  0.000839  (-0.026189 -0.012142 -0.002468)
 35:    405.26   0.000504    2.55  0.000388  ( 0.019288  0.003560 -0.001767)
 36:    450.72   0.002044   10.33  0.001415  ( 0.032940 -0.011750 -0.013868)
 37:    506.60   0.008579   43.35  0.005285  ( 0.071100  0.008724 -0.012384)
 38:    506.76   0.005000   25.27  0.003079  (-0.053059  0.002227  0.016093)
 39:    537.86   0.012811   64.74  0.007433  ( 0.081260  0.027571 -0.008349)
 40:    548.05   0.006248   31.57  0.003558  ( 0.030024 -0.051311  0.004834)
 41:    562.05   0.004866   24.59  0.002702  ( 0.013152  0.011368 -0.048983)
 42:    573.66   0.006782   34.28  0.003690  (-0.058238  0.016592 -0.004749)
 43:    595.42   0.006116   30.91  0.003205  (-0.000719 -0.020576  0.052738)
 44:    605.46   0.001153    5.83  0.000594  (-0.019084 -0.002598  0.014948)
 45:    629.72   0.054606  275.95  0.027060  (-0.154753  0.054691 -0.010995)
 46:    633.32   0.014913   75.37  0.007349  (-0.058064  0.028147 -0.056435)
 47:    670.21   0.002133   10.78  0.000993  (-0.003503 -0.020236  0.023907)
 48:    698.91   0.010206   51.57  0.004557  (-0.058211 -0.012001 -0.032003)
 49:    709.34   0.002534   12.81  0.001115  ( 0.030810  0.007971 -0.010097)
 50:    749.80   0.000855    4.32  0.000356  (-0.017062 -0.005469  0.005895)
 51:    764.41   0.008601   43.47  0.003511  ( 0.029404  0.016847 -0.048610)
 52:    862.01   0.001982   10.02  0.000718  (-0.025786  0.007230 -0.000667)
 53:    998.47   0.014281   72.17  0.004463  (-0.064943  0.004274 -0.015087)
 54:   1054.08   0.042614  215.36  0.012616  (-0.007361 -0.042991 -0.103507)
 55:   1094.88   0.007088   35.82  0.002020  (-0.009105 -0.011432  0.042503)
 56:   1115.12   0.008387   42.38  0.002347  (-0.018174  0.039160  0.021982)
 57:   1123.26   0.028950  146.30  0.008043  (-0.013479  0.023599  0.085465)
 58:   1125.71   0.105289  532.09  0.029188  (-0.027402 -0.156036  0.063949)
 59:   1133.48   0.025727  130.01  0.007083  ( 0.012806  0.074634 -0.036727)
 60:   1136.43   0.064585  326.39  0.017735  ( 0.006772 -0.132245  0.014157)
 61:   1140.75   0.008230   41.59  0.002251  (-0.006634 -0.028147 -0.037616)
 62:   1146.89   0.258349  1305.59  0.070296  (-0.006933  0.086723  0.250454)
 63:   1161.74   0.002954   14.93  0.000793  ( 0.000981 -0.028069 -0.002148)
 64:   1176.24   0.007506   37.93  0.001991  (-0.034845  0.018474 -0.020877)
 65:   1184.08   0.004479   22.64  0.001180  ( 0.014017  0.025626 -0.018093)
 66:   1212.33   0.051597  260.75  0.013281  (-0.024004  0.104029 -0.043397)
 67:   1234.10   0.017802   89.96  0.004502  (-0.042212  0.050434 -0.013270)
 68:   1246.56   0.012564   63.49  0.003145  (-0.000738 -0.055562  0.007594)
 69:   1265.47   0.003752   18.96  0.000925  ( 0.018238 -0.018438 -0.015898)
 70:   1304.60   0.003414   17.25  0.000817  (-0.012630  0.025505 -0.002579)
 71:   1348.04   0.021648  109.40  0.005011  (-0.061867  0.008328  0.033383)
 72:   1392.05   0.014511   73.33  0.003253  ( 0.041903 -0.029104 -0.025496)
 73:   1808.52   0.091380  461.80  0.015768  ( 0.042038  0.101450  0.060898)
 74:   3604.84   0.048016  242.65  0.004157  (-0.050340 -0.002936  0.040173)

* The epsilon (eps) is given for a Dirac delta lineshape.
** The dipole moment derivative (T) already includes vibrational overlap.

The first frequency considered to be a vibration is 6
The total number of vibrations considered is 69


--------------------------
THERMOCHEMISTRY AT 298.15K
--------------------------

Temperature         ...   298.15 K
Pressure            ...     1.00 atm
Total Mass          ...   395.07 AMU
Quasi RRHO          ...     True
Cut-Off Frequency   ...     1.00 cm^-1

Throughout the following assumptions are being made:
  (1) The electronic state is orbitally nondegenerate
      but the spin degeneracy is treated
  (2) There are no thermally accessible electronically excited states
  (3) Hindered rotations indicated by low frequency modes are not
      treated as such but are treated as vibrations and this may
      cause some error
  (4) All equations used are the standard statistical mechanics
      equations for an ideal gas
  (5) All vibrations are strictly harmonic

freq.      13.65  E(vib)   ...       0.57 
freq.      31.79  E(vib)   ...       0.55 
freq.      39.87  E(vib)   ...       0.54 
freq.      43.85  E(vib)   ...       0.53 
freq.      52.77  E(vib)   ...       0.52 
freq.      61.00  E(vib)   ...       0.51 
freq.      61.92  E(vib)   ...       0.51 
freq.      70.85  E(vib)   ...       0.50 
freq.     111.12  E(vib)   ...       0.45 
freq.     132.58  E(vib)   ...       0.42 
freq.     151.27  E(vib)   ...       0.40 
freq.     176.99  E(vib)   ...       0.38 
freq.     191.24  E(vib)   ...       0.36 
freq.     195.75  E(vib)   ...       0.36 
freq.     198.45  E(vib)   ...       0.35 
freq.     216.19  E(vib)   ...       0.34 
freq.     230.11  E(vib)   ...       0.32 
freq.     241.92  E(vib)   ...       0.31 
freq.     246.97  E(vib)   ...       0.31 
freq.     252.33  E(vib)   ...       0.30 
freq.     282.08  E(vib)   ...       0.28 
freq.     299.17  E(vib)   ...       0.26 
freq.     309.98  E(vib)   ...       0.26 
freq.     329.56  E(vib)   ...       0.24 
freq.     347.64  E(vib)   ...       0.23 
freq.     356.77  E(vib)   ...       0.22 
freq.     360.61  E(vib)   ...       0.22 
freq.     365.72  E(vib)   ...       0.22 
freq.     367.18  E(vib)   ...       0.22 
freq.     405.26  E(vib)   ...       0.19 
freq.     450.72  E(vib)   ...       0.17 
freq.     506.60  E(vib)   ...       0.14 
freq.     506.76  E(vib)   ...       0.14 
freq.     537.86  E(vib)   ...       0.12 
freq.     548.05  E(vib)   ...       0.12 
freq.     562.05  E(vib)   ...       0.11 
freq.     573.66  E(vib)   ...       0.11 
freq.     595.42  E(vib)   ...       0.10 
freq.     605.46  E(vib)   ...       0.10 
freq.     629.72  E(vib)   ...       0.09 
freq.     633.32  E(vib)   ...       0.09 
freq.     670.21  E(vib)   ...       0.08 
freq.     698.91  E(vib)   ...       0.07 
freq.     709.34  E(vib)   ...       0.07 
freq.     749.80  E(vib)   ...       0.06 
freq.     764.41  E(vib)   ...       0.06 
freq.     862.01  E(vib)   ...       0.04 
freq.     998.47  E(vib)   ...       0.02 
freq.    1054.08  E(vib)   ...       0.02 
freq.    1094.88  E(vib)   ...       0.02 
freq.    1115.12  E(vib)   ...       0.01 
freq.    1123.26  E(vib)   ...       0.01 
freq.    1125.71  E(vib)   ...       0.01 
freq.    1133.48  E(vib)   ...       0.01 
freq.    1136.43  E(vib)   ...       0.01 
freq.    1140.75  E(vib)   ...       0.01 
freq.    1146.89  E(vib)   ...       0.01 
freq.    1161.74  E(vib)   ...       0.01 
freq.    1176.24  E(vib)   ...       0.01 
freq.    1184.08  E(vib)   ...       0.01 
freq.    1212.33  E(vib)   ...       0.01 
freq.    1234.10  E(vib)   ...       0.01 
freq.    1246.56  E(vib)   ...       0.01 
freq.    1265.47  E(vib)   ...       0.01 
freq.    1304.60  E(vib)   ...       0.01 
freq.    1348.04  E(vib)   ...       0.01 
freq.    1392.05  E(vib)   ...       0.00 
freq.    1808.52  E(vib)   ...       0.00 
freq.    3604.84  E(vib)   ...       0.00 

------------
INNER ENERGY
------------

The inner energy is: U= E(el) + E(ZPE) + E(vib) + E(rot) + E(trans)
    E(el)   - is the total energy from the electronic structure calculation
              = E(kin-el) + E(nuc-el) + E(el-el) + E(nuc-nuc)
    E(ZPE)  - the the zero temperature vibrational energy from the frequency calculation
    E(vib)  - the the finite temperature correction to E(ZPE) due to population
              of excited vibrational states
    E(rot)  - is the rotational thermal energy
    E(trans)- is the translational thermal energy

Summary of contributions to the inner energy U:
Electronic energy                ...  -1854.39009893 Eh
Zero point energy                ...      0.10424103 Eh      65.41 kcal/mol
Thermal vibrational correction   ...      0.02034026 Eh      12.76 kcal/mol
Thermal rotational correction    ...      0.00141627 Eh       0.89 kcal/mol
Thermal translational correction ...      0.00141627 Eh       0.89 kcal/mol
-----------------------------------------------------------------------
Total thermal energy                  -1854.26268510 Eh


Summary of corrections to the electronic energy:
(perhaps to be used in another calculation)
Total thermal correction                  0.02317281 Eh      14.54 kcal/mol
Non-thermal (ZPE) correction              0.10424103 Eh      65.41 kcal/mol
-----------------------------------------------------------------------
Total correction                          0.12741383 Eh      79.95 kcal/mol


--------
ENTHALPY
--------

The enthalpy is H = U + kB*T
                kB is Boltzmann's constant
Total thermal energy              ...  -1854.26268510 Eh 
Thermal Enthalpy correction       ...      0.00094421 Eh       0.59 kcal/mol
-----------------------------------------------------------------------
Total Enthalpy                    ...  -1854.26174089 Eh


Note: Only C1 symmetry has been detected, increase convergence thresholds 
      if your molecule has a higher symmetry. Symmetry factor of 1.0 is   
      used for the rotational entropy correction. 
 

Note: Rotational entropy computed according to Herzberg 
Infrared and Raman Spectra, Chapter V,1, Van Nostrand Reinhold, 1945 
Point Group:  C1, Symmetry Number:   1  
Rotational constants in cm-1:     0.022591     0.004059     0.003967 

Vibrational entropy computed according to the QRRHO of S. Grimme
Chem.Eur.J. 2012 18 9955 using a reference frequency of 100.0 cm-1


-------
ENTROPY
-------

The entropy contributions are T*S = T*(S(el)+S(vib)+S(rot)+S(trans))
     S(el)   - electronic entropy
     S(vib)  - vibrational entropy
     S(rot)  - rotational entropy
     S(trans)- translational entropy
The entropies will be listed as multiplied by the temperature to get
units of energy

Electronic entropy                ...      0.00065446 Eh      0.41 kcal/mol
Vibrational entropy               ...      0.03680947 Eh     23.10 kcal/mol
Rotational entropy                ...      0.01651044 Eh     10.36 kcal/mol
Translational entropy             ...      0.02081703 Eh     13.06 kcal/mol
-----------------------------------------------------------------------
Final entropy term                ...      0.07479139 Eh     46.93 kcal/mol

In case the symmetry of your molecule has not been determined correctly
or in case you have a reason to use a different symmetry number we print 
out the resulting rotational entropy values for sn=1,12:

 non-linear molecules -----------------------------------
|  sn= 1 | S(rot)=       0.01651044 Eh     10.36 kcal/mol|
|  sn= 2 | S(rot)=       0.01585598 Eh      9.95 kcal/mol|
|  sn= 3 | S(rot)=       0.01547315 Eh      9.71 kcal/mol|
|  sn= 4 | S(rot)=       0.01520153 Eh      9.54 kcal/mol|
|  sn= 5 | S(rot)=       0.01499084 Eh      9.41 kcal/mol|
|  sn= 6 | S(rot)=       0.01481869 Eh      9.30 kcal/mol|
|  sn= 7 | S(rot)=       0.01467315 Eh      9.21 kcal/mol|
|  sn= 8 | S(rot)=       0.01454707 Eh      9.13 kcal/mol|
|  sn= 9 | S(rot)=       0.01443586 Eh      9.06 kcal/mol|
|  sn=10 | S(rot)=       0.01433638 Eh      9.00 kcal/mol|
|  sn=11 | S(rot)=       0.01424639 Eh      8.94 kcal/mol|
|  sn=12 | S(rot)=       0.01416424 Eh      8.89 kcal/mol|
 linear molecules ---------------------------------------
|  Dinfh | S(rot)=       0.01054699 Eh      6.62 kcal/mol|
|  Cinfv | S(rot)=       0.01120145 Eh      7.03 kcal/mol|
 --------------------------------------------------------


-------------------
GIBBS FREE ENERGY
-------------------

The Gibbs free energy is G = H - T*S

Total enthalpy                    ...  -1854.26174089 Eh 
Total entropy correction          ...     -0.07479139 Eh    -46.93 kcal/mol
-----------------------------------------------------------------------
Final Gibbs free energy         ...  -1854.33653228 Eh

For completeness - the Gibbs free energy minus the electronic energy
G-E(el)                           ...      0.05356665 Eh     33.61 kcal/mol


Maximum memory used throughout the entire PROP-calculation: 546.2 MB

--------------------------------
SUGGESTED CITATIONS FOR THIS RUN
--------------------------------

Below you find a list of papers that are relevant to this ORCA run
We neither can nor want to force you to cite these papers, but we appreciate if you do
You receive ORCA, which is the product of decades of hard work by many enthusiastic individuals, for free
The only thing we kindly ask in return is that you cite our papers,
We deeply appreciate it, if you show your appreciation for ORCA by not just citing the generic ORCA reference.

Please note that relegating all ORCA citations to the supporting information does *not* help us.
SI sections are not indexed - citations you put there will not count into any citation statistics
But we need these citations in order to attract the funding resources that allow us to do what we are doing

Therefore, if you are a happy ORCA user, please consider citing a few of the papers listed below in the main body of your paper

In addition to the list printed below, the program has created the file rf_mecn_freq_TP_C8_P_B.bibtex that contains the list in bibtex format
You can import this file easily into all common literature databanks and citation aid programs


List of essential papers. We consider these as the minimum necessary citations

  1. Neese,F.
     Software update: the ORCA program system, version 5.0
     WIRES Comput. Molec. Sci., 2022 12(1)e1606
     doi.org/10.1002/wcms.1606

List of papers to cite with high priority. The work reported in these papers was absolutely
necessary for this run to complete.
Our perspective: the developers of density functionals and basis sets usually get cited in chemistry papers
Good! But without the algorithms to do something with them, the functionals or basis sets would not do anything.
Hence, in our opinion, the algorithm design and method developments papers are equally worthy of getting cited

  1. Neese,F.
     An improvement of the resolution of the identity approximation for the formation of the Coulomb matrix
     J. Comp. Chem., 2003 24(14)1740-1747
     doi.org/10.1002/jcc.10318
  2. Neese,F.; Wennmohs,F.; Hansen,A.; Becker,U.
     Efficient, approximate and parallel Hartree-Fock and hybrid DFT calculations. A 'chain-of-spheres' algorithm for the Hartree-Fock exchange
     Chem. Phys., 2009 356(1-3)98-109
     doi.org/10.1016/j.chemphys.2008.10.036
  3. Bykov,D.; Petrenko,T.; Izsak,R.; Kossmann,S.; Becker,U.; Valeev,E.; Neese,F.
     Efficient implementation of the analytic second derivatives of Hartree-Fock and hybrid DFT energies: a detailed analysis of different approximations
     Molec. Phys., 2015 113 1961-1977
     doi.org/10.1080/00268976.2015.1025114
  4. Garcia-Rates,M.; Neese,F.
     Efficient implementation of the analytical second derivatives of hartree-fock and hybrid DFT energies within the framework of the conductor-like polarizable continuum model
     J. Comput. Chem., 2019 40 1816-1828
     doi.org/10.1002/jcc.25833
  5. Garcia-Rates,M.; Neese,F.
     Effect of the Solute Cavity on the Solvation Energy and its Derivatives within the Framework of the Gaussian Charge Scheme
     J. Comput. Chem., 2020 41 922-939
     doi.org/10.1002/jcc.26139
  6. Helmich-Paris,B.; de Souza,B.; Neese,F.; Izsák,R.
     An improved chain of spheres for exchange algorithm
     J. Chem. Phys., 2021 155 104109
     doi.org/doi: 10.1063/5.0058766.
  7. Neese,F.
     The SHARK Integral Generation and Digestion System
     J. Comp. Chem., 2022  1-16
     doi.org/10.1002/jcc.26942
  8. Grimme,S.; Antony,J.; Ehrlich,S.; Krieg,H.
     A consistent and accurate ab initio parametrization of density functional dispersion correction (DFT-D) for the 94 elements H-Pu
     J. Chem. Phys., 2010 132 154104
     doi.org/10.1063/1.3382344
  9. Grimme,S.; Ehrlich,S.; Goerigk,L.
     Effect of the damping function in dispersion corrected density functional theory
     J. Comput. Chem., 2011 32(7)1456-1465
     doi.org/10.1002/jcc.21759

List of suggested additional citations. These are papers that are important in the 'surrounding' of 
of this run, or papers that preceded the highly important papers. If you like your results we are grateful for a citation.

  1. Izsak,R.; Neese,F.
     An overlap fitted chain of spheres exchange method
     J. Chem. Phys., 2011 135 144105
     doi.org/10.1063/1.3646921
  2. Izsak,R.; Hansen,A.; Neese,F.
     The resolution of identity and chain of spheres approximations for the LPNO-CCSD singles Fock term
     Molec. Phys., 2012 110 2413-2417
     doi.org/10.1080/00268976.2012.687466
  3. Neese,F.
     The ORCA program system
     WIRES Comput. Molec. Sci., 2012 2(1)73-78
     doi.org/10.1002/wcms.81
  4. Izsak,R.; Neese,F.; Klopper,W.
     Robust fitting techniques in the chain of spheres approximation to the Fock exchange: The role of the complementary space
     J. Chem. Phys., 2013 139 
     doi.org/10.1063/1.4819264
  5. Neese,F.
     Software update: the ORCA program system, version 4.0
     WIRES Comput. Molec. Sci., 2018 8(1)1-6
     doi.org/10.1002/wcms.1327
  6. Neese,F.; Wennmohs,F.; Becker,U.; Riplinger,C.
     The ORCA quantum chemistry program package
     J. Chem. Phys., 2020 152 Art. No. L224108
     doi.org/10.1063/5.0004608

List of optional additional citations

  1. Neese,F.
     Approximate second-order SCF convergence for spin unrestricted wavefunctions
     Chem. Phys. Lett., 2000 325(1-3)93-98
     doi.org/10.1016/s0009-2614(00)00662-x

Timings for individual modules:

Sum of individual times          ...     1279.597 sec (=  21.327 min)
Startup calculation              ...        3.854 sec (=   0.064 min)   0.3 %
SCF iterations                   ...       79.278 sec (=   1.321 min)   6.2 %
Property integrals               ...      412.618 sec (=   6.877 min)  32.2 %
SCF Response                     ...      575.172 sec (=   9.586 min)  44.9 %
Property calculations            ...      208.676 sec (=   3.478 min)  16.3 %
                             ****ORCA TERMINATED NORMALLY****
TOTAL RUN TIME: 0 days 0 hours 21 minutes 20 seconds 471 msec
