
                                 *****************
                                 * O   R   C   A *
                                 *****************

                                            #,                                       
                                            ###                                      
                                            ####                                     
                                            #####                                    
                                            ######                                   
                                           ########,                                 
                                     ,,################,,,,,                         
                               ,,#################################,,                 
                          ,,##########################################,,             
                       ,#########################################, ''#####,          
                    ,#############################################,,   '####,        
                  ,##################################################,,,,####,       
                ,###########''''           ''''###############################       
              ,#####''   ,,,,##########,,,,          '''####'''          '####       
            ,##' ,,,,###########################,,,                        '##       
           ' ,,###''''                  '''############,,,                           
         ,,##''                                '''############,,,,        ,,,,,,###''
      ,#''                                            '''#######################'''  
     '                                                          ''''####''''         
             ,#######,   #######,   ,#######,      ##                                
            ,#'     '#,  ##    ##  ,#'     '#,    #''#        ,####,   ,####,        
            ##       ##  ##   ,#'  ##            #'  '#       #'       #'  '#        
            ##       ##  #######   ##           ,######,      #####,   #    #        
            '#,     ,#'  ##    ##  '#,     ,#' ,#      #,     #,   #   #,  ,#        
             '#######'   ##     ##  '#######'  #'      '#     '####' # '####'        



                #########################################################
                #                        -***-                          #
                #          Department of theory and spectroscopy        #
                #                                                       #
                #                      Frank Neese                      #
                #                                                       #
                #     Directorship, Architecture, Infrastructure        #
                #                    SHARK, DRIVERS                     #
                #        Core code/Algorithms in most modules           #
                #                                                       #
                #        Max Planck Institute fuer Kohlenforschung      #
                #                Kaiser Wilhelm Platz 1                 #
                #                 D-45470 Muelheim/Ruhr                 #
                #                      Germany                          #
                #                                                       #
                #                  All rights reserved                  #
                #                        -***-                          #
                #########################################################


                         Program Version 6.0.1  -  RELEASE   -


 With contributions from (in alphabetic order):
[Max-Planck-Institut fuer Kohlenforschung]                               
  Daniel Aravena         : Magnetic Suceptibility                        
  Michael Atanasov       : Ab Initio Ligand Field Theory (pilot matlab implementation)
  Alexander A. Auer      : GIAO ZORA, VPT2 properties, NMR spectrum      
  Ute Becker             : All parallelization in ORCA, NUMFREQ, NUMCALC 
  Giovanni Bistoni       : ED, misc. LED, open-shell LED, HFLD           
  Martin Brehm           : Molecular dynamics                            
  Dmytro Bykov           : pre 5.0 version of the SCF Hessian            
  Marcos Casanova-Páez   : Triplet and SCS-CIS(D). UHF-(DLPNO)-IP/EA/STEOM-CCSD. UHF-CVS-IP/STEOM-CCSD   
  Vijay G. Chilkuri      : MRCI spin determinant printing, contributions to CSF-ICE 
  Pauline Colinet        : FMM embedding                                 
  Dipayan Datta          : RHF DLPNO-CCSD density                        
  Achintya Kumar Dutta   : EOM-CC, STEOM-CC                              
  Nicolas Foglia         : Exact transition moments, OPA infrastructure, MCD improvements    
  Dmitry Ganyushin       : Spin-Orbit,Spin-Spin,Magnetic field MRCI      
  Miquel Garcia-Rates    : C-PCM and meta-GGA Hessian, CCSD/C-PCM, Gaussian charge scheme 
  Tiago L. C. Gouveia    : GS-ROHF, GS-ROCIS                             
  Yang Guo               : DLPNO-NEVPT2, F12-NEVPT2, CIM, IAO-localization        
  Andreas Hansen         : Spin unrestricted coupled pair/coupled cluster methods 
  Ingolf Harden          : AUTO-CI MPn and infrastructure                
  Benjamin Helmich-Paris : MC-RPA, TRAH-(SCF,CASSCF), AVAS, COSX integrals, SCF dyn. polar. 
  Lee Huntington         : MR-EOM, pCC                                   
  Robert Izsak           : Overlap fitted RIJCOSX, COSX-SCS-MP3, EOM     
  Riya Kayal             : Wick's Theorem for AUTO-CI, AUTO-CI UHF-CCSDT 
  Emily Kempfer          : AUTO-CI, RHF CISDT and CCSDT                  
  Christian Kollmar      : KDIIS, OOCD, Brueckner-CCSD(T), CCSD density, CASPT2, CASPT2-K, improved NEVPT2 
  Axel Koslowski         : Symmetry handling                             
  Simone Kossmann        : meta-GGA functionals, TD-DFT gradient, OOMP2, (MP2 Hessian; deprecated post 5.0) 
  Lucas Lang             : DCDCAS                                        
  Marvin Lechner         : AUTO-CI (C++ implementation), FIC-MRCC        
  Spencer Leger          : CASSCF response                               
  Dagmar Lenk            : GEPOL surface, SMD, ORCA-2-JSON               
  Dimitrios Liakos       : Extrapolation schemes; Compound Job, initial MDCI parallelization 
  Dimitrios Manganas     : Further ROCIS development; embedding schemes. LFT, Crystal Embedding 
  Dimitrios Pantazis     : SARC Basis sets                               
  Anastasios Papadopoulos: AUTO-CI, single reference methods and gradients 
  Taras Petrenko         : pre 6.0 DFT Hessian and TD-DFT gradient, (ASA, deprecated), ECA, 1-Electron XAS/XES, NRVS 
  Peter Pinski           : DLPNO-MP2, DLPNO-MP2 Gradient                 
  Christoph Reimann      : Effective Core Potentials                     
  Marius Retegan         : Local ZFS, SOC                                
  Christoph Riplinger    : Optimizer, TS searches, QM/MM, DLPNO-CCSD(T), (RO)-DLPNO pert. Triples 
  Michael Roemelt        : Original ROCIS implementation                 
  Masaaki Saitow         : Open-shell DLPNO-CCSD energy and density      
  Barbara Sandhoefer     : DKH picture change effects                    
  Kantharuban Sivalingam : CASSCF convergence/infrastructure, NEVPT2 and variants, FIC-MRCI 
  Bernardo de Souza      : ESD, SOC TD-DFT                               
  Georgi L. Stoychev     : AutoAux, RI-MP2 NMR, DLPNO-MP2 response, X2C  
  Van Anh Tran           : RI-MP2 g-tensors                              
  Willem Van den Heuvel  : Paramagnetic NMR                              
  Zikuan Wang            : NOTCH, Electric field optimization            
  Frank Wennmohs         : Technical directorship and infrastructure     
  Hang Xu                : AUTO-CI-Response properties                   
                                                                         
[FACCTs GmbH]                                                            
  Markus Bursch, Miquel Garcia-Rates, Christoph Riplinger, Bernardo de Souza, Georgi L. Stoychev 
                                                                 
  APM, Basis sets (HGBS, AHGBS, def-TZVP (Ac-Lr), def2-XVPD (La-Lu)), CI-OPT, improved COSX, DLPNO-Multilevel,           
  DOCKER, DRACO, updates on ESD, GOAT, IRC, LR-CPCM, MBIS, meta-GGA TD-DFT gradient, ML-optimized integration grids, 
  MM, NACMEs, nearIR, NEB, NEB-TS, NL-DFT gradient (VV10), 2- and 3-layer-ONIOM, interface openCOSMO-RS, QMMM,   
  Crystal-QMMM, SF, symmetry and pop. for TD-DFT, r2SCAN hybrids, SOLVATOR                                   
                                                                         
[Other institutions]                                                     
  V. Asgeirsson          : NEB                                           
  Christoph Bannwarth    : sTDA-DFT, sTD-DFT, PBEh-3c, B97-3c, D3        
  Sebastian Ehlert       : rSCAN, r2SCAN, r2SCAN-3c, D4, dhf basis sets  
  Marvin Friede          : D4 for Fr, Ra, Ac-Lr                          
  Lars Goerigk           : TD-DFT with DH, B97 family of functionals     
  Stefan Grimme          : VdW corrections, initial TS optimization, DFT functionals, gCP, sTDA/sTD-DF 
  Waldemar Hujo          : DFT-NL                                        
  H. Jonsson             : NEB                                           
  Holger Kruse           : gCP                                           
  Marcel Mueller         : wB97X-3c, vDZP basis set                      
  Hagen Neugebauer       : wr2SCAN                                       
  Tobias Risthaus        : range-separated hybrid DFT                    
  Lukas Wittmann         : regularized MP2, r2SCAN double-hybrids, wr2SCAN        
                                                                         
We gratefully acknowledge several colleagues who have allowed us to      
interface, adapt or use parts of their codes:                            
  Ed Valeev, F. Pavosevic, A. Kumar             : LibInt (2-el integral package), F12 methods 
  Garnet Chan, S. Sharma, J. Yang, R. Olivares  : DMRG                   
  Ulf Ekstrom                                   : XCFun DFT Library      
  Mihaly Kallay                                 : mrcc  (arbitrary order and MRCC methods)
  Frank Weinhold                                : gennbo (NPA and NBO analysis)           
  Simon Mueller                                 : openCOSMO-RS                            
  Christopher J. Cramer and Donald G. Truhlar   : smd solvation model                     
  S Lehtola, MJT Oliveira, MAL Marques          : LibXC Library                           
  Liviu Ungur et al                             : ANISO software                          


 Your calculation uses the libint2 library for the computation of 2-el integrals
 For citations please refer to: http://libint.valeyev.net

 Your ORCA version has been built with support for libXC version: 6.2.2
 For citations please refer to: https://libxc.gitlab.io

 This ORCA versions uses:
   CBLAS   interface :  Fast vector & matrix operations
   LAPACKE interface :  Fast linear algebra routines
   SCALAPACK package :  Parallel linear algebra routines
   Shared memory     :  Shared parallel matrices
   BLAS/LAPACK       :  OpenBLAS 0.3.27  USE64BITINT DYNAMIC_ARCH NO_AFFINITY SkylakeX SINGLE_THREADED
        Core in use  :  SkylakeX
   Copyright (c) 2011-2014, The OpenBLAS Project


NOTE: MaxCore=8000 MB was set to SCF,MP2,MDCI,CIPSI,MRCI and CIS
      => If you want to overwrite this, your respective input block should be placed after the MaxCore statement
Your calculation utilizes the atom-pairwise dispersion correction
with the Becke-Johnson damping scheme (D3BJ)


Your calculation utilizes the SMD solvation module
Please cite in your paper:
A.V. Marenich, C.J. Cramer, D.G. Truhlar J. Phys. Chem. B, 113, (2009), 6378 

Warning: RI is on but no J-basis has been assigned. Assigning Def2/J (nothing to worry about!)
================================================================================

----- Orbital basis set information -----
Your calculation utilizes the basis: def2-TZVP
   F. Weigend and R. Ahlrichs, Phys. Chem. Chem. Phys. 7, 3297 (2005).

----- AuxJ basis set information -----
Your calculation utilizes the auxiliary basis: def2/J
   F. Weigend, Phys. Chem. Chem. Phys. 8, 1057 (2006).

================================================================================
                                        WARNINGS
                       Please study these warnings very carefully!
================================================================================


WARNING: your system is open-shell and RHF/RKS was chosen
  ===> : WILL SWITCH to UHF/UKS


================================================================================
                                       INPUT FILE
================================================================================
NAME = rf_mecn_freq_TP_C2_P_B.inp
|  1> !TPSSh def2-TZVP freq d3 TightSCF SlowConv defgrid2
|  2>  
|  3> %pal
|  4> nprocs 20
|  5> end
|  6>  
|  7> %scf
|  8> MaxIter 1500
|  9> end
| 10>  
| 11> %maxcore 8000
| 12>  
| 13> !CPCM
| 14> %cpcm smd true
| 15> SMDsolvent "ACETONITRILE"
| 16> end
| 17>  
| 18> * xyz 0 2
| 19> 6        4.749773000     -0.145042000     -0.310655000
| 20> 8        5.662493000     -1.094264000     -0.060904000
| 21> 8        4.991290000      1.019830000     -0.560579000
| 22> 6        3.391774000     -0.666202000     -0.258324000
| 23> 6        2.170161000      0.172723000     -0.516052000
| 24> 6        0.839979000     -0.536882000     -0.101792000
| 25> 6       -0.407070000      0.415631000     -0.063728000
| 26> 6       -1.769911000     -0.359583000     -0.106552000
| 27> 6       -2.986452000      0.495052000      0.387335000
| 28> 6       -4.378145000     -0.056373000     -0.063888000
| 29> 9        3.201294000     -1.967893000     -0.118289000
| 30> 9        2.250840000      1.342543000      0.168637000
| 31> 9        2.091464000      0.485664000     -1.843220000
| 32> 9        0.598342000     -1.541943000     -0.972889000
| 33> 9        0.998798000     -1.058645000      1.134617000
| 34> 9       -0.355923000      1.143062000      1.072895000
| 35> 9       -0.367880000      1.258839000     -1.115923000
| 36> 9       -1.683214000     -1.457029000      0.675464000
| 37> 9       -1.999364000     -0.754887000     -1.376983000
| 38> 9       -2.877543000      1.757225000     -0.080813000
| 39> 9       -2.973457000      0.529377000      1.734610000
| 40> 9       -4.473740000     -1.365794000      0.188282000
| 41> 9       -5.336367000      0.582235000      0.614100000
| 42> 9       -4.571635000      0.149906000     -1.368096000
| 43> 1        6.547963000     -0.684055000     -0.119377000
| 44> *
| 45> 
| 46>                          ****END OF INPUT****
================================================================================

                       ****************************
                       * Single Point Calculation *
                       ****************************

---------------------------------
CARTESIAN COORDINATES (ANGSTROEM)
---------------------------------
  C      4.749773   -0.145042   -0.310655
  O      5.662493   -1.094264   -0.060904
  O      4.991290    1.019830   -0.560579
  C      3.391774   -0.666202   -0.258324
  C      2.170161    0.172723   -0.516052
  C      0.839979   -0.536882   -0.101792
  C     -0.407070    0.415631   -0.063728
  C     -1.769911   -0.359583   -0.106552
  C     -2.986452    0.495052    0.387335
  C     -4.378145   -0.056373   -0.063888
  F      3.201294   -1.967893   -0.118289
  F      2.250840    1.342543    0.168637
  F      2.091464    0.485664   -1.843220
  F      0.598342   -1.541943   -0.972889
  F      0.998798   -1.058645    1.134617
  F     -0.355923    1.143062    1.072895
  F     -0.367880    1.258839   -1.115923
  F     -1.683214   -1.457029    0.675464
  F     -1.999364   -0.754887   -1.376983
  F     -2.877543    1.757225   -0.080813
  F     -2.973457    0.529377    1.734610
  F     -4.473740   -1.365794    0.188282
  F     -5.336367    0.582235    0.614100
  F     -4.571635    0.149906   -1.368096
  H      6.547963   -0.684055   -0.119377

----------------------------
CARTESIAN COORDINATES (A.U.)
----------------------------
  NO LB      ZA    FRAG     MASS         X           Y           Z
   0 C     6.0000    0    12.011    8.975770   -0.274090   -0.587053
   1 O     8.0000    0    15.999   10.700561   -2.067859   -0.115092
   2 O     8.0000    0    15.999    9.432171    1.927199   -1.059341
   3 C     6.0000    0    12.011    6.409524   -1.258939   -0.488162
   4 C     6.0000    0    12.011    4.101010    0.326399   -0.975197
   5 C     6.0000    0    12.011    1.587330   -1.014560   -0.192359
   6 C     6.0000    0    12.011   -0.769251    0.785429   -0.120428
   7 C     6.0000    0    12.011   -3.344647   -0.679513   -0.201354
   8 C     6.0000    0    12.011   -5.643576    0.935513    0.731957
   9 C     6.0000    0    12.011   -8.273495   -0.106530   -0.120731
  10 F     9.0000    0    18.998    6.049569   -3.718779   -0.223534
  11 F     9.0000    0    18.998    4.253471    2.537039    0.318678
  12 F     9.0000    0    18.998    3.952294    0.917772   -3.483181
  13 F     9.0000    0    18.998    1.130703   -2.913850   -1.838494
  14 F     9.0000    0    18.998    1.887455   -2.000549    2.144115
  15 F     9.0000    0    18.998   -0.672597    2.160074    2.027478
  16 F     9.0000    0    18.998   -0.695192    2.378861   -2.108789
  17 F     9.0000    0    18.998   -3.180813   -2.753386    1.276442
  18 F     9.0000    0    18.998   -3.778250   -1.426530   -2.602121
  19 F     9.0000    0    18.998   -5.437768    3.320674   -0.152714
  20 F     9.0000    0    18.998   -5.619019    1.000378    3.277938
  21 F     9.0000    0    18.998   -8.454143   -2.580977    0.355801
  22 F     9.0000    0    18.998  -10.084272    1.100265    1.160481
  23 F     9.0000    0    18.998   -8.639138    0.283281   -2.585327
  24 H     1.0000    0     1.008   12.373857   -1.292677   -0.225590

--------------------------------
INTERNAL COORDINATES (ANGSTROEM)
--------------------------------
 C      0   0   0     0.000000000000     0.00000000     0.00000000
 O      1   0   0     1.340319277517     0.00000000     0.00000000
 O      1   2   0     1.215614759473   125.56729424     0.00000000
 C      1   2   3     1.455509382712   112.02871218   179.68710769
 C      4   1   2     1.504179909246   123.49578832   180.80554815
 C      5   4   1     1.563500801646   113.10536930   192.36496028
 C      6   5   4     1.569669102603   114.01170630   167.35949952
 C      7   6   5     1.568478954928   112.93733452   161.49144756
 C      8   7   6     1.566619723058   113.35937849   161.35850128
 C      9   8   7     1.563483652810   114.06856345   161.28791188
 F      4   1   2     1.322985975400   119.36912202   353.35694864
 F      5   4   1     1.357861171167   110.23314800   313.30120792
 F      5   4   1     1.365833147758   109.94223800    71.29143220
 F      6   5   4     1.351793636950   108.58932134   289.02468308
 F      6   5   4     1.351357583399   108.52189215    47.23169677
 F      7   6   5     1.350438343464   108.49331026   282.17947943
 F      7   6   5     1.348943996387   109.71379453    40.65775639
 F      8   7   6     1.350352960148   109.27370913    40.72843266
 F      8   7   6     1.350151420170   108.54585607   282.53041223
 F      9   8   7     1.350594092285   109.75016683    40.55523254
 F      9   8   7     1.347774833299   108.75643181   281.66435074
 F     10   9   8     1.336903686945   110.77206665    48.65429576
 F     10   9   8     1.336292373357   108.86322857   168.15958427
 F     10   9   8     1.334521604623   110.89074475   287.50685478
 H      2   1   3     0.977623463461   107.96734092   359.77675589

---------------------------
INTERNAL COORDINATES (A.U.)
---------------------------
 C      0   0   0     0.000000000000     0.00000000     0.00000000
 O      1   0   0     2.532836366523     0.00000000     0.00000000
 O      1   2   0     2.297178979757   125.56729424     0.00000000
 C      1   2   3     2.750514118678   112.02871218   179.68710769
 C      4   1   2     2.842488084621   123.49578832   180.80554815
 C      5   4   1     2.954588325278   113.10536930   192.36496028
 C      6   5   4     2.966244724797   114.01170630   167.35949952
 C      7   6   5     2.963995671634   112.93733452   161.49144756
 C      8   7   6     2.960482232580   113.35937849   161.35850128
 C      9   8   7     2.954555918673   114.06856345   161.28791188
 F      4   1   2     2.500081172525   119.36912202   353.35694864
 F      5   4   1     2.565985741390   110.23314800   313.30120792
 F      5   4   1     2.581050593894   109.94223800    71.29143220
 F      6   5   4     2.554519763413   108.58932134   289.02468308
 F      6   5   4     2.553695741622   108.52189215    47.23169677
 F      7   6   5     2.551958629894   108.49331026   282.17947943
 F      7   6   5     2.549134723169   109.71379453    40.65775639
 F      8   7   6     2.551797278810   109.27370913    40.72843266
 F      8   7   6     2.551416423445   108.54585607   282.53041223
 F      9   8   7     2.552252952510   109.75016683    40.55523254
 F      9   8   7     2.546925325127   108.75643181   281.66435074
 F     10   9   8     2.526381835755   110.77206665    48.65429576
 F     10   9   8     2.525226620492   108.86322857   168.15958427
 F     10   9   8     2.521880352538   110.89074475   287.50685478
 H      2   1   3     1.847440608037   107.96734092   359.77675589

---------------------
BASIS SET INFORMATION
---------------------
There are 4 groups of distinct atoms

 Group   1 Type C   : 11s6p2d1f contracted to 5s3p2d1f pattern {62111/411/11/1}
 Group   2 Type O   : 11s6p2d1f contracted to 5s3p2d1f pattern {62111/411/11/1}
 Group   3 Type F   : 11s6p2d1f contracted to 5s3p2d1f pattern {62111/411/11/1}
 Group   4 Type H   : 5s1p contracted to 3s1p pattern {311/1}

Atom   0C    basis set group =>   1
Atom   1O    basis set group =>   2
Atom   2O    basis set group =>   2
Atom   3C    basis set group =>   1
Atom   4C    basis set group =>   1
Atom   5C    basis set group =>   1
Atom   6C    basis set group =>   1
Atom   7C    basis set group =>   1
Atom   8C    basis set group =>   1
Atom   9C    basis set group =>   1
Atom  10F    basis set group =>   3
Atom  11F    basis set group =>   3
Atom  12F    basis set group =>   3
Atom  13F    basis set group =>   3
Atom  14F    basis set group =>   3
Atom  15F    basis set group =>   3
Atom  16F    basis set group =>   3
Atom  17F    basis set group =>   3
Atom  18F    basis set group =>   3
Atom  19F    basis set group =>   3
Atom  20F    basis set group =>   3
Atom  21F    basis set group =>   3
Atom  22F    basis set group =>   3
Atom  23F    basis set group =>   3
Atom  24H    basis set group =>   4
---------------------------------
AUXILIARY/J BASIS SET INFORMATION
---------------------------------
There are 4 groups of distinct atoms

 Group   1 Type C   : 12s5p4d2f1g contracted to 6s4p3d1f1g pattern {711111/2111/211/2/1}
 Group   2 Type O   : 12s5p4d2f1g contracted to 6s4p3d1f1g pattern {711111/2111/211/2/1}
 Group   3 Type F   : 12s5p4d2f1g contracted to 6s4p3d1f1g pattern {711111/2111/211/2/1}
 Group   4 Type H   : 5s2p1d contracted to 3s1p1d pattern {311/2/1}

Atom   0C    basis set group =>   1
Atom   1O    basis set group =>   2
Atom   2O    basis set group =>   2
Atom   3C    basis set group =>   1
Atom   4C    basis set group =>   1
Atom   5C    basis set group =>   1
Atom   6C    basis set group =>   1
Atom   7C    basis set group =>   1
Atom   8C    basis set group =>   1
Atom   9C    basis set group =>   1
Atom  10F    basis set group =>   3
Atom  11F    basis set group =>   3
Atom  12F    basis set group =>   3
Atom  13F    basis set group =>   3
Atom  14F    basis set group =>   3
Atom  15F    basis set group =>   3
Atom  16F    basis set group =>   3
Atom  17F    basis set group =>   3
Atom  18F    basis set group =>   3
Atom  19F    basis set group =>   3
Atom  20F    basis set group =>   3
Atom  21F    basis set group =>   3
Atom  22F    basis set group =>   3
Atom  23F    basis set group =>   3
Atom  24H    basis set group =>   4


           ************************************************************
           *        Program running with 20 parallel MPI-processes    *
           *              working on a common directory               *
           ************************************************************
------------------------------------------------------------------------------
                             ORCA STARTUP CALCULATIONS
                           -- RI-GTO INTEGRALS CHOSEN --
------------------------------------------------------------------------------
------------------------------------------------------------------------------
                   ___                                                        
                  /   \      - P O W E R E D   B Y -                         
                 /     \                                                     
                 |  |  |   _    _      __       _____    __    __             
                 |  |  |  | |  | |    /  \     |  _  \  |  |  /  |          
                  \  \/   | |  | |   /    \    | | | |  |  | /  /          
                 / \  \   | |__| |  /  /\  \   | |_| |  |  |/  /          
                |  |  |   |  __  | /  /__\  \  |    /   |      \           
                |  |  |   | |  | | |   __   |  |    \   |  |\   \          
                \     /   | |  | | |  |  |  |  | |\  \  |  | \   \       
                 \___/    |_|  |_| |__|  |__|  |_| \__\ |__|  \__/        
                                                                              
                      - O R C A' S   B I G   F R I E N D -                    
                                      &                                       
                       - I N T E G R A L  F E E D E R -                       
                                                                              
 v1 FN, 2020, v2 2021, v3 2022-2024                                           
------------------------------------------------------------------------------


----------------------
SHARK INTEGRAL PACKAGE
----------------------

Number of atoms                             ...     25
Number of basis functions                   ...    750
Number of shells                            ...    268
Maximum angular momentum                    ...      3
Integral batch strategy                     ... SHARK/LIBINT Hybrid
RI-J (if used) integral strategy            ... SPLIT-RIJ (Revised 2003 algorithm where possible)
Printlevel                                  ...      1
Contraction scheme used                     ... SEGMENTED contraction
Prescreening option                         ... SCHWARTZ
   Thresh                                   ... 2.500e-11
   Tcut                                     ... 2.500e-12
   Tpresel                                  ... 2.500e-12 
Coulomb Range Separation                    ... NOT USED
Exchange Range Separation                   ... NOT USED
Multipole approximations                    ... NOT USED
Finite Nucleus Model                        ... NOT USED
CABS basis                                  ... NOT available
Auxiliary Coulomb fitting basis             ... AVAILABLE
   # of basis functions in Aux-J            ...   1187
   # of shells in Aux-J                     ...    365
   Maximum angular momentum in Aux-J        ...      4
Auxiliary J/K fitting basis                 ... NOT available
Auxiliary Correlation fitting basis         ... NOT available
Auxiliary 'external' fitting basis          ... NOT available

Checking pre-screening integrals            ... done (  0.0 sec) Dimension = 268
Check shell pair data                       ... done (  0.0 sec)
Shell pair information
Shell pair cut-off parameter TPreSel        ...   2.5e-12
Total number of shell pairs                 ...     36046
Shell pairs after pre-screening             ...     22284
Total number of primitive shell pairs       ...    118872
Primitive shell pairs kept                  ...     47381
          la=0 lb=0:   4250 shell pairs
          la=1 lb=0:   6090 shell pairs
          la=1 lb=1:   2100 shell pairs
          la=2 lb=0:   3309 shell pairs
          la=2 lb=1:   2407 shell pairs
          la=2 lb=2:    682 shell pairs
          la=3 lb=0:   1508 shell pairs
          la=3 lb=1:   1164 shell pairs
          la=3 lb=2:    623 shell pairs
          la=3 lb=3:    151 shell pairs

Calculating one electron integrals          ... done (  0.0 sec)
Calculating RI/J V-Matrix + Cholesky decomp.... done (  0.1 sec)
Calculating Nuclear repulsion               ... done (  0.0 sec) ENN=   2660.614273789534 Eh

Diagonalization of the overlap matrix:
Smallest eigenvalue                        ... 4.749e-05
Time for diagonalization                   ...    0.102 sec
Threshold for overlap eigenvalues          ... 1.000e-07
Number of eigenvalues below threshold      ... 0
Time for construction of square roots      ...    0.045 sec
Total time needed                          ...    0.152 sec

-------------------
DFT GRID GENERATION
-------------------

General Integration Accuracy     IntAcc      ... 4.388
Radial Grid Type                 RadialGrid  ... OptM3 with GC (2021)
Angular Grid (max. ang.)         AngularGrid ... 4 (Lebedev-302)
Angular grid pruning method      GridPruning ... 4 (adaptive)
Weight generation scheme         WeightScheme... mBecke (2022)
Basis function cutoff            BFCut       ... 1.0000e-11
Integration weight cutoff        WCut        ... 1.0000e-14
Partially contracted basis set               ... off
Rotationally invariant grid construction     ... off
Angular grids for H and He will be reduced by one unit

Total number of grid points                  ...   148668
Total number of batches                      ...     2334
Average number of points per batch           ...       63
Average number of grid points per atom       ...     5947

--------------------
COSX GRID GENERATION
--------------------

GRIDX 1
-------
General Integration Accuracy     IntAcc      ... 3.816
Radial Grid Type                 RadialGrid  ... OptM3 with GC (2021)
Angular Grid (max. ang.)         AngularGrid ... 1 (Lebedev-50)
Angular grid pruning method      GridPruning ... 4 (adaptive)
Weight generation scheme         WeightScheme... mBecke (2022)
Basis function cutoff            BFCut       ... 1.0000e-11
Integration weight cutoff        WCut        ... 1.0000e-14
Partially contracted basis set               ... on
Rotationally invariant grid construction     ... off
Angular grids for H and He will be reduced by one unit

Total number of grid points                  ...    18686
Total number of batches                      ...      157
Average number of points per batch           ...      119
Average number of grid points per atom       ...      747
UseSFitting                                  ... on

GRIDX 2
-------
General Integration Accuracy     IntAcc      ... 4.020
Radial Grid Type                 RadialGrid  ... OptM3 with GC (2021)
Angular Grid (max. ang.)         AngularGrid ... 2 (Lebedev-110)
Angular grid pruning method      GridPruning ... 4 (adaptive)
Weight generation scheme         WeightScheme... mBecke (2022)
Basis function cutoff            BFCut       ... 1.0000e-11
Integration weight cutoff        WCut        ... 1.0000e-14
Partially contracted basis set               ... on
Rotationally invariant grid construction     ... off
Angular grids for H and He will be reduced by one unit

Total number of grid points                  ...    44059
Total number of batches                      ...      357
Average number of points per batch           ...      123
Average number of grid points per atom       ...     1762
UseSFitting                                  ... on

GRIDX 3
-------
General Integration Accuracy     IntAcc      ... 4.338
Radial Grid Type                 RadialGrid  ... OptM3 with GC (2021)
Angular Grid (max. ang.)         AngularGrid ... 3 (Lebedev-194)
Angular grid pruning method      GridPruning ... 4 (adaptive)
Weight generation scheme         WeightScheme... mBecke (2022)
Basis function cutoff            BFCut       ... 1.0000e-11
Integration weight cutoff        WCut        ... 1.0000e-14
Partially contracted basis set               ... on
Rotationally invariant grid construction     ... off
Angular grids for H and He will be reduced by one unit

Total number of grid points                  ...    97625
Total number of batches                      ...      772
Average number of points per batch           ...      126
Average number of grid points per atom       ...     3905
UseSFitting                                  ... on
Initializing property integral containers    ... done (  0.0 sec)

SHARK setup successfully completed in   3.0 seconds

Maximum memory used throughout the entire STARTUP-calculation: 57.3 MB


           ************************************************************
           *        Program running with 20 parallel MPI-processes    *
           *              working on a common directory               *
           ************************************************************
-------------------------------------------------------------------------------
                                 ORCA GUESS
                   Start orbitals & Density for SCF / CASSCF
-------------------------------------------------------------------------------

------------
SCF SETTINGS
------------
Hamiltonian:
 Density Functional     Method          .... DFT(GTOs)
 Exchange Functional    Exchange        .... TPSS
 Correlation Functional Correlation     .... TPSS
 LDA part of GGA corr.  LDAOpt          .... PW91-LDA
 Gradients option       PostSCFGGA      .... off
 Hybrid DFT is turned on
   Fraction HF Exchange ScalHFX         ....  0.100000
   Scaling of DF-GGA-X  ScalDFX         ....  0.900000
   Scaling of DF-GGA-C  ScalDFC         ....  1.000000
   Scaling of DF-LDA-C  ScalLDAC        ....  1.000000
   Perturbative correction              ....  0.000000
   NL short-range parameter             ....  5.200000
 RI-approximation to the Coulomb term is turned on
   Number of AuxJ basis functions       .... 1187
   RIJ-COSX (HFX calculated with COS-X)).... on


General Settings:
 Integral files         IntName         .... rf_mecn_freq_TP_C2_P_B
 Hartree-Fock type      HFTyp           .... UHF
 Total Charge           Charge          ....    0
 Multiplicity           Mult            ....    2
 Number of Electrons    NEL             ....  191
 Basis Dimension        Dim             ....  750
 Nuclear Repulsion      ENuc            ....   2660.6142737895 Eh

Convergence Acceleration:
 AO-DIIS                CNVDIIS         .... on
   Start iteration      DIISMaxIt       ....     0
   Startup error        DIISStart       ....  0.200000
   # of expansion vecs  DIISMaxEq       ....     5
   Bias factor          DIISBfac        ....   1.050
   Max. coefficient     DIISMaxC        ....  10.000
 MO-DIIS                CNVKDIIS        .... off
 Trust-Rad. Augm. Hess. CNVTRAH         .... auto
   Auto Start mean grad. ratio tolernc. ....  1.125000
   Auto Start start iteration           ....    50
   Auto Start num. interpolation iter.  ....    10
   Max. Number of Micro iterations      ....    24
   Max. Number of Macro iterations      .... Maxiter - #DIIS iter
   Number of Davidson start vectors     ....     2
   Converg. threshold    (grad. norm)   ....   1.000e-05
   Grad. Scal. Fac. for Micro threshold ....   0.100
   Minimum threshold for Micro iter.    ....   1.000e-02
   NR start threshold (gradient norm)   ....   1.000e-04
   Initial trust radius                 ....   0.400
   Minimum AH scaling param. (alpha)    ....   1.000
   Maximum AH scaling param. (alpha)    .... 1000.000
   Quad. conv. algorithm                .... NR
   White noise on init. David. guess    .... on
   Maximum white noise                  ....   0.010
   Pseudo random numbers                .... off
   Inactive MOs                         .... canonical
   Orbital update algorithm             .... Taylor
   Preconditioner                       .... Diag
   Full preconditioner red. dimension   ....   250
 SOSCF                  CNVSOSCF        .... on
   Start iteration      SOSCFMaxIt      ....   150
   Startup grad/error   SOSCFStart      ....  0.001000
   Hessian update       SOSCFHessUp     .... L-BFGS
 Level Shifting         CNVShift        .... on
   Level shift para.    LevelShift      ....    0.2500
   Turn off err/grad.   ShiftErr        ....    0.0000
 Zerner damping         CNVZerner       .... off
 Static damping         CNVDamp         .... on
   Fraction old density DampFac         ....    0.8500
   Max. Damping (<1)    DampMax         ....    0.9800
   Min. Damping (>=0)   DampMin         ....    0.0000
   Turn off err/grad.   DampErr         ....    0.0300

SCF Procedure:
 Maximum # iterations   MaxIter         ....  1500
 SCF integral mode      SCFMode         .... Direct
   Integral package                     .... SHARK and LIBINT hybrid scheme
 Reset frequency        DirectResetFreq ....    20
 Integral Threshold     Thresh          ....  2.500e-11 Eh
 Primitive CutOff       TCut            ....  2.500e-12 Eh

Convergence Tolerance:
 Convergence Check Mode ConvCheckMode   .... Total+1el-Energy
 Convergence forced     ConvForced      .... 0
 Energy Change          TolE            ....  1.000e-08 Eh
 1-El. energy change                    ....  1.000e-05 Eh
 Orbital Gradient       TolG            ....  1.000e-05
 Orbital Rotation angle TolX            ....  1.000e-05
 DIIS Error             TolErr          ....  5.000e-07

------------------------------
INITIAL GUESS: MODEL POTENTIAL
------------------------------
Loading Hartree-Fock densities                     ... done
Calculating cut-offs                               ... done
Initializing the effective Hamiltonian             ... done
Setting up the integral package (SHARK)            ... done
Starting the Coulomb interaction                   ... done (   0.1 sec)
Making the grid                                    ... done (   0.4 sec)
Mapping shells                                     ... done
Starting the XC term evaluation                    ... done (   0.1 sec)
  promolecular density results
     # of electrons  =    190.999068310
     EX              =   -197.555888350
     EC              =     -6.709968846
     EX+EC           =   -204.265857196
Transforming the Hamiltonian                       ... done (   0.0 sec)
Diagonalizing the Hamiltonian                      ... done (   0.1 sec)
Back transforming the eigenvectors                 ... done (   0.0 sec)
Now organizing SCF variables                       ... done
                      ------------------
                      INITIAL GUESS DONE (   1.0 sec)
                      ------------------
             **** ENERGY FILE WAS UPDATED (rf_mecn_freq_TP_C2_P_B.en.tmp) ****
Finished Guess after   1.7 sec
Maximum memory used throughout the entire GUESS-calculation: 46.1 MB


           ************************************************************
           *        Program running with 20 parallel MPI-processes    *
           *              working on a common directory               *
           ************************************************************

-------------------------------------------------------------------------------------------
                                      ORCA LEAN-SCF
                              memory conserving SCF solver
-------------------------------------------------------------------------------------------

--------------------
CPCM SOLVATION MODEL
--------------------
CPCM parameters:
  Epsilon                                         ...      35.6880
  Refrac                                          ...       1.3442
  Rsolv                                           ...       1.3000
  Surface type                                    ... GAUSSIAN VDW
  Discretization scheme                           ... Constant charge density
    Threshold for H atoms                         ...       5.0000 (charges/Ang^2)
    Threshold for non-H atoms                     ...       5.0000 (charges/Ang^2)
  Epsilon function type                           ...         CPCM
Solvent:                                          ... ACETONITRILE
SMD-CDS solvent descriptors:
  Soln                                            ...       1.3442
  Soln25                                          ...       1.3416
  Sola                                            ...       0.0700
  Solb                                            ...       0.3200
  Solg                                            ...      41.2500
  Solc                                            ...       0.0000
  Solh                                            ...       0.0000
Radii:
  Scheme                                          ... Element-dependent radii
  Radius for C  used is    3.4960 Bohr (=   1.8500 Ang.)
  Radius for O  used is    4.0969 Bohr (=   2.1680 Ang.)
  Radius for F  used is    3.2692 Bohr (=   1.7300 Ang.)
  Radius for H  used is    2.2677 Bohr (=   1.2000 Ang.)
Calculating surface                               ...        done! (  0.0s)
Cavity surface points                             ...         2156
Cavity Volume                                     ...    2104.0880
Cavity Surface-area                               ...    1101.6737
Calculating surface distance matrix               ...        done! (  0.0s)
Performing Cholesky decomposition & store         ...        done! (  0.1s)
Overall time for CPCM initialization              ...                 0.1s

----------------------------------------D-I-I-S--------------------------------------------
Iteration    Energy (Eh)           Delta-E    RMSDP     MaxDP     DIISErr   Damp  Time(sec)
-------------------------------------------------------------------------------------------
               ***  Starting incremental Fock matrix formation  ***
    1    -1854.0022835253121229     0.00e+00  2.28e-04  2.66e-02  1.48e-01  0.850   6.7
Warning: op=1 Small HOMO/LUMO gap (   0.008) - skipping pre-diagonalization
         Will do a full diagonalization
    2    -1854.1246823492920157    -1.22e-01  2.50e-04  4.23e-02  9.91e-02  0.850   4.8
                               ***Turning on AO-DIIS***
    3    -1854.1894130301916448    -6.47e-02  9.52e-05  1.07e-02  5.64e-02  0.850   4.1
    4    -1854.2277602647718595    -3.83e-02  5.42e-05  4.79e-03  4.27e-02  0.850   4.4
    5    -1854.2549862297146319    -2.72e-02  4.61e-05  3.92e-03  3.69e-02  0.850   4.4
    6    -1854.2766272992384984    -2.16e-02  4.13e-05  4.35e-03  3.26e-02  0.850   4.4
    7    -1854.2947380508394417    -1.81e-02  3.70e-05  3.71e-03  2.82e-02  0.850   4.2
    8    -1854.3101514999771098    -1.54e-02  2.15e-04  2.05e-02  2.32e-02  0.000   4.2
    9    -1854.3910306918396600    -8.09e-02  2.27e-05  2.47e-03  4.70e-03  0.000   4.7
   10    -1854.3912227623386570    -1.92e-04  8.62e-06  1.00e-03  2.96e-03  0.000   4.1
                              *** Initializing SOSCF ***
---------------------------------------S-O-S-C-F--------------------------------------
Iteration    Energy (Eh)           Delta-E    RMSDP     MaxDP     MaxGrad    Time(sec)
--------------------------------------------------------------------------------------
   11    -1854.3912805937652593    -5.78e-05  4.55e-06  5.44e-04  6.76e-04     4.2
               *** Restarting incremental Fock matrix formation ***
   12    -1854.3912856032511627    -5.01e-06  4.58e-06  4.62e-04  2.97e-04     7.7
   13    -1854.3912881433379880    -2.54e-06  4.54e-06  3.90e-04  3.87e-04     4.7
   14    -1854.3912893698097832    -1.23e-06  2.13e-06  1.88e-04  2.97e-04     4.5
   15    -1854.3912902667643721    -8.97e-07  9.90e-07  1.30e-04  3.40e-05     4.4
   16    -1854.3912903333348368    -6.66e-08  4.65e-07  4.23e-05  3.38e-05     4.0
   17    -1854.3912903886966888    -5.54e-08  3.68e-07  5.36e-05  1.19e-05     4.0
   18    -1854.3912904181179329    -2.94e-08  2.00e-07  2.73e-05  1.13e-05     3.8
   19    -1854.3912904186736341    -5.56e-10  1.44e-07  1.49e-05  1.59e-06     3.5
                 **** Energy Check signals convergence ****

               *****************************************************
               *                     SUCCESS                       *
               *           SCF CONVERGED AFTER  19 CYCLES          *
               *****************************************************

Recomputing exchange energy using gridx3       ... done (    8.735 sec)
Old exchange energy                            :    -19.916634434 Eh
New exchange energy                            :    -19.916634213 Eh
Exchange energy change after final integration :      0.000000221 Eh
Total energy after final integration           :  -1854.391290198 Eh

SMD CDS free energy correction energy :                 3.27385     Kcal/mol
Total Energy after SMD CDS correction =             -1854.386072982 Eh
             **** ENERGY FILE WAS UPDATED (rf_mecn_freq_TP_C2_P_B.en.tmp) ****

----------------
TOTAL SCF ENERGY
----------------

Total Energy       :      -1854.38607298218358 Eh          -50460.41040 eV

Components:
Nuclear Repulsion  :       2660.61427378953431 Eh           72398.99508 eV
Electronic Energy  :      -4514.99376065065735 Eh         -122859.22627 eV
One Electron Energy:      -7872.29440509479537 Eh         -214216.02129 eV
Two Electron Energy:       3357.30064444413847 Eh           91356.79503 eV
CPCM Dielectric    :         -0.01180355755194 Eh              -0.32119 eV
SMD CDS (Gcds)     :          0.00521721585006 Eh               0.14197 eV

Virial components:
Potential Energy   :      -3702.47183107875526 Eh         -100749.38052 eV
Kinetic Energy     :       1848.08575809657168 Eh           50288.97012 eV
Virial Ratio       :          2.00340910309925

DFT components:
N(Alpha)           :       95.999983743293 electrons
N(Beta)            :       94.999978965518 electrons
N(Total)           :      190.999962708811 electrons
E(X)               :     -180.983384938818 Eh       
E(C)               :       -6.721703176604 Eh       
E(XC)              :     -187.705088115422 Eh       

CPCM Solvation Model Properties:
Surface-charge          :         -0.00866177318835
Corrected charge        :         -0.00000000000000
Outlying charge corr.   :          0.00000410906713 Eh               0.00011 eV
Free-energy (cav+disp)  :          0.00521721585006 Eh               0.14197 eV

---------------
SCF CONVERGENCE
---------------

  Last Energy change         ...    5.5570e-10  Tolerance :   1.0000e-08
  Last MAX-Density change    ...    1.4884e-05  Tolerance :   1.0000e-07
  Last RMS-Density change    ...    1.4433e-07  Tolerance :   5.0000e-09
  Last DIIS Error            ...    6.7627e-04  Tolerance :   5.0000e-07
  Last Orbital Gradient      ...    1.5909e-06  Tolerance :   1.0000e-05
  Last Orbital Rotation      ...    6.2918e-06  Tolerance :   1.0000e-05


----------------------
UHF SPIN CONTAMINATION
----------------------

Warning: in a DFT calculation there is little theoretical justification to 
         calculate <S**2> as in Hartree-Fock theory. We will do it anyways
         but you should keep in mind that the values have only limited relevance

Expectation value of <S**2>     :     0.757343
Ideal value S*(S+1) for S=0.5   :     0.750000
Deviation                       :     0.007343

----------------
ORBITAL ENERGIES
----------------
                 SPIN UP ORBITALS
  NO   OCC          E(Eh)            E(eV) 
   0   1.0000     -24.670988      -671.3317 
   1   1.0000     -24.662549      -671.1021 
   2   1.0000     -24.662464      -671.0998 
   3   1.0000     -24.662410      -671.0983 
   4   1.0000     -24.661823      -671.0823 
   5   1.0000     -24.661333      -671.0690 
   6   1.0000     -24.661283      -671.0676 
   7   1.0000     -24.661134      -671.0636 
   8   1.0000     -24.660829      -671.0553 
   9   1.0000     -24.660618      -671.0495 
  10   1.0000     -24.660460      -671.0452 
  11   1.0000     -24.659466      -671.0182 
  12   1.0000     -24.651194      -670.7931 
  13   1.0000     -24.647998      -670.7061 
  14   1.0000     -19.118892      -520.2515 
  15   1.0000     -19.068912      -518.8915 
  16   1.0000     -10.397275      -282.9242 
  17   1.0000     -10.347621      -281.5731 
  18   1.0000     -10.347006      -281.5564 
  19   1.0000     -10.345878      -281.5257 
  20   1.0000     -10.343843      -281.4703 
  21   1.0000     -10.340122      -281.3690 
  22   1.0000     -10.270692      -279.4797 
  23   1.0000     -10.265001      -279.3249 
  24   1.0000      -1.323830       -36.0232 
  25   1.0000      -1.304093       -35.4862 
  26   1.0000      -1.290011       -35.1030 
  27   1.0000      -1.279884       -34.8274 
  28   1.0000      -1.279322       -34.8121 
  29   1.0000      -1.270335       -34.5676 
  30   1.0000      -1.264375       -34.4054 
  31   1.0000      -1.239923       -33.7400 
  32   1.0000      -1.235025       -33.6067 
  33   1.0000      -1.232976       -33.5510 
  34   1.0000      -1.228888       -33.4397 
  35   1.0000      -1.224236       -33.3132 
  36   1.0000      -1.222881       -33.2763 
  37   1.0000      -1.213203       -33.0129 
  38   1.0000      -1.104932       -30.0667 
  39   1.0000      -1.021301       -27.7910 
  40   1.0000      -0.830570       -22.6010 
  41   1.0000      -0.818075       -22.2610 
  42   1.0000      -0.793008       -21.5789 
  43   1.0000      -0.756640       -20.5892 
  44   1.0000      -0.715596       -19.4724 
  45   1.0000      -0.677995       -18.4492 
  46   1.0000      -0.658741       -17.9253 
  47   1.0000      -0.632633       -17.2148 
  48   1.0000      -0.625957       -17.0332 
  49   1.0000      -0.620592       -16.8872 
  50   1.0000      -0.612587       -16.6693 
  51   1.0000      -0.606166       -16.4946 
  52   1.0000      -0.603245       -16.4151 
  53   1.0000      -0.598395       -16.2831 
  54   1.0000      -0.588674       -16.0186 
  55   1.0000      -0.582885       -15.8611 
  56   1.0000      -0.578830       -15.7508 
  57   1.0000      -0.573967       -15.6184 
  58   1.0000      -0.565247       -15.3811 
  59   1.0000      -0.560959       -15.2645 
  60   1.0000      -0.555024       -15.1030 
  61   1.0000      -0.535991       -14.5850 
  62   1.0000      -0.513578       -13.9752 
  63   1.0000      -0.493412       -13.4264 
  64   1.0000      -0.488821       -13.3015 
  65   1.0000      -0.487277       -13.2595 
  66   1.0000      -0.480376       -13.0717 
  67   1.0000      -0.478250       -13.0138 
  68   1.0000      -0.472653       -12.8615 
  69   1.0000      -0.470758       -12.8100 
  70   1.0000      -0.468427       -12.7465 
  71   1.0000      -0.460819       -12.5395 
  72   1.0000      -0.458119       -12.4660 
  73   1.0000      -0.455956       -12.4072 
  74   1.0000      -0.454419       -12.3654 
  75   1.0000      -0.448813       -12.2128 
  76   1.0000      -0.447147       -12.1675 
  77   1.0000      -0.442463       -12.0400 
  78   1.0000      -0.435894       -11.8613 
  79   1.0000      -0.431778       -11.7493 
  80   1.0000      -0.427854       -11.6425 
  81   1.0000      -0.425561       -11.5801 
  82   1.0000      -0.423475       -11.5233 
  83   1.0000      -0.421289       -11.4639 
  84   1.0000      -0.418853       -11.3976 
  85   1.0000      -0.417735       -11.3671 
  86   1.0000      -0.414004       -11.2656 
  87   1.0000      -0.412639       -11.2285 
  88   1.0000      -0.412184       -11.2161 
  89   1.0000      -0.405890       -11.0448 
  90   1.0000      -0.395101       -10.7512 
  91   1.0000      -0.365628        -9.9492 
  92   1.0000      -0.335579        -9.1316 
  93   1.0000      -0.330513        -8.9937 
  94   1.0000      -0.293156        -7.9772 
  95   1.0000      -0.257782        -7.0146 
  96   0.0000      -0.027748        -0.7551 
  97   0.0000      -0.018657        -0.5077 
  98   0.0000      -0.004087        -0.1112 
  99   0.0000       0.023797         0.6476 
 100   0.0000       0.034877         0.9491 
 101   0.0000       0.048356         1.3158 
 102   0.0000       0.069688         1.8963 
 103   0.0000       0.082559         2.2465 
 104   0.0000       0.093409         2.5418 
 105   0.0000       0.105284         2.8649 
 106   0.0000       0.111103         3.0233 

                 SPIN DOWN ORBITALS
  NO   OCC          E(Eh)            E(eV) 
   0   1.0000     -24.666643      -671.2135 
   1   1.0000     -24.662549      -671.1021 
   2   1.0000     -24.662464      -671.0998 
   3   1.0000     -24.662410      -671.0983 
   4   1.0000     -24.661823      -671.0823 
   5   1.0000     -24.661333      -671.0690 
   6   1.0000     -24.661283      -671.0676 
   7   1.0000     -24.661131      -671.0635 
   8   1.0000     -24.660829      -671.0553 
   9   1.0000     -24.660618      -671.0495 
  10   1.0000     -24.660417      -671.0441 
  11   1.0000     -24.659426      -671.0171 
  12   1.0000     -24.650625      -670.7776 
  13   1.0000     -24.646648      -670.6694 
  14   1.0000     -19.118443      -520.2393 
  15   1.0000     -19.064609      -518.7744 
  16   1.0000     -10.397275      -282.9242 
  17   1.0000     -10.347624      -281.5732 
  18   1.0000     -10.347018      -281.5567 
  19   1.0000     -10.345879      -281.5257 
  20   1.0000     -10.343837      -281.4701 
  21   1.0000     -10.340779      -281.3869 
  22   1.0000     -10.271867      -279.5117 
  23   1.0000     -10.250958      -278.9427 
  24   1.0000      -1.323830       -36.0232 
  25   1.0000      -1.303971       -35.4829 
  26   1.0000      -1.289608       -35.0920 
  27   1.0000      -1.279687       -34.8220 
  28   1.0000      -1.279140       -34.8072 
  29   1.0000      -1.268620       -34.5209 
  30   1.0000      -1.256772       -34.1985 
  31   1.0000      -1.239911       -33.7397 
  32   1.0000      -1.234969       -33.6052 
  33   1.0000      -1.232974       -33.5509 
  34   1.0000      -1.228791       -33.4371 
  35   1.0000      -1.224186       -33.3118 
  36   1.0000      -1.222848       -33.2754 
  37   1.0000      -1.211196       -32.9583 
  38   1.0000      -1.102664       -30.0050 
  39   1.0000      -1.015749       -27.6399 
  40   1.0000      -0.828919       -22.5560 
  41   1.0000      -0.812270       -22.1030 
  42   1.0000      -0.785982       -21.3877 
  43   1.0000      -0.750207       -20.4142 
  44   1.0000      -0.712905       -19.3991 
  45   1.0000      -0.677317       -18.4307 
  46   1.0000      -0.658489       -17.9184 
  47   1.0000      -0.630220       -17.1492 
  48   1.0000      -0.625761       -17.0278 
  49   1.0000      -0.619416       -16.8552 
  50   1.0000      -0.612511       -16.6673 
  51   1.0000      -0.605658       -16.4808 
  52   1.0000      -0.602428       -16.3929 
  53   1.0000      -0.597481       -16.2583 
  54   1.0000      -0.587560       -15.9883 
  55   1.0000      -0.582007       -15.8372 
  56   1.0000      -0.578144       -15.7321 
  57   1.0000      -0.572093       -15.5675 
  58   1.0000      -0.563019       -15.3205 
  59   1.0000      -0.558876       -15.2078 
  60   1.0000      -0.553382       -15.0583 
  61   1.0000      -0.533470       -14.5165 
  62   1.0000      -0.491732       -13.3807 
  63   1.0000      -0.487844       -13.2749 
  64   1.0000      -0.487204       -13.2575 
  65   1.0000      -0.485885       -13.2216 
  66   1.0000      -0.479673       -13.0526 
  67   1.0000      -0.477368       -12.9898 
  68   1.0000      -0.472422       -12.8552 
  69   1.0000      -0.470594       -12.8055 
  70   1.0000      -0.467170       -12.7123 
  71   1.0000      -0.460438       -12.5292 
  72   1.0000      -0.457621       -12.4525 
  73   1.0000      -0.454501       -12.3676 
  74   1.0000      -0.452762       -12.3203 
  75   1.0000      -0.446575       -12.1519 
  76   1.0000      -0.444343       -12.0912 
  77   1.0000      -0.437134       -11.8950 
  78   1.0000      -0.435889       -11.8611 
  79   1.0000      -0.430329       -11.7098 
  80   1.0000      -0.427619       -11.6361 
  81   1.0000      -0.425503       -11.5785 
  82   1.0000      -0.423365       -11.5203 
  83   1.0000      -0.420876       -11.4526 
  84   1.0000      -0.418658       -11.3923 
  85   1.0000      -0.415301       -11.3009 
  86   1.0000      -0.413771       -11.2593 
  87   1.0000      -0.411638       -11.2012 
  88   1.0000      -0.411330       -11.1929 
  89   1.0000      -0.403591       -10.9823 
  90   1.0000      -0.394127       -10.7247 
  91   1.0000      -0.364521        -9.9191 
  92   1.0000      -0.329657        -8.9704 
  93   1.0000      -0.321695        -8.7538 
  94   1.0000      -0.288933        -7.8623 
  95   0.0000      -0.151269        -4.1162 
  96   0.0000      -0.026239        -0.7140 
  97   0.0000      -0.012206        -0.3321 
  98   0.0000       0.005555         0.1512 
  99   0.0000       0.027455         0.7471 
 100   0.0000       0.042163         1.1473 
 101   0.0000       0.050337         1.3697 
 102   0.0000       0.078664         2.1406 
 103   0.0000       0.090775         2.4701 
 104   0.0000       0.095085         2.5874 
 105   0.0000       0.107752         2.9321 
*Only the first 10 virtual orbitals were printed.

                    ********************************
                    * MULLIKEN POPULATION ANALYSIS *
                    ********************************

--------------------------------------------
MULLIKEN ATOMIC CHARGES AND SPIN POPULATIONS
--------------------------------------------
   0 C :    0.237523   -0.047683
   1 O :   -0.365584    0.017719
   2 O :   -0.322923    0.153614
   3 C :    0.180149    0.770789
   4 C :    0.347834   -0.006064
   5 C :    0.291884   -0.008420
   6 C :    0.299246   -0.000064
   7 C :    0.273614   -0.000149
   8 C :    0.295677   -0.000018
   9 C :    0.408542   -0.000010
  10 F :   -0.123324    0.085381
  11 F :   -0.153804    0.009686
  12 F :   -0.162042    0.025764
  13 F :   -0.151683    0.000914
  14 F :   -0.150586    0.000667
  15 F :   -0.147391   -0.000002
  16 F :   -0.146432    0.000006
  17 F :   -0.148000    0.000007
  18 F :   -0.147691   -0.000000
  19 F :   -0.146191   -0.000001
  20 F :   -0.143493    0.000000
  21 F :   -0.135366    0.000000
  22 F :   -0.132135   -0.000003
  23 F :   -0.133110   -0.000000
  24 H :    0.375288   -0.002131
Sum of atomic charges         :    0.0000000
Sum of atomic spin populations:    1.0000000

-----------------------------------------------------
MULLIKEN REDUCED ORBITAL CHARGES AND SPIN POPULATIONS
-----------------------------------------------------
CHARGE
  0 C s       :     3.056834  s :     3.056834
      pz      :     0.812203  p :     2.394286
      px      :     0.830965
      py      :     0.751119
      dz2     :     0.016799  d :     0.287264
      dxz     :     0.036237
      dyz     :     0.058665
      dx2y2   :     0.075485
      dxy     :     0.100078
      f0      :     0.002499  f :     0.024093
      f+1     :     0.001257
      f-1     :     0.002388
      f+2     :     0.002442
      f-2     :     0.003241
      f+3     :     0.006881
      f-3     :     0.005386

  1 O s       :     3.774850  s :     3.774850
      pz      :     1.735884  p :     4.558255
      px      :     1.264903
      py      :     1.557467
      dz2     :     0.004356  d :     0.030710
      dxz     :     0.001992
      dyz     :     0.005094
      dx2y2   :     0.006526
      dxy     :     0.012741
      f0      :     0.000241  f :     0.001769
      f+1     :     0.000414
      f-1     :     0.000216
      f+2     :     0.000054
      f-2     :     0.000167
      f+3     :     0.000182
      f-3     :     0.000494

  2 O s       :     3.814346  s :     3.814346
      pz      :     1.401136  p :     4.477169
      px      :     1.735614
      py      :     1.340419
      dz2     :     0.003305  d :     0.029512
      dxz     :     0.000950
      dyz     :     0.009694
      dx2y2   :     0.008117
      dxy     :     0.007445
      f0      :     0.000163  f :     0.001896
      f+1     :     0.000027
      f-1     :     0.000276
      f+2     :     0.000370
      f-2     :     0.000130
      f+3     :     0.000469
      f-3     :     0.000461

  3 C s       :     3.217198  s :     3.217198
      pz      :     0.951438  p :     2.411704
      px      :     0.865080
      py      :     0.595185
      dz2     :     0.010976  d :     0.172650
      dxz     :     0.014643
      dyz     :     0.036978
      dx2y2   :     0.034707
      dxy     :     0.075345
      f0      :     0.002519  f :     0.018299
      f+1     :     0.001244
      f-1     :     0.001771
      f+2     :     0.002816
      f-2     :     0.000973
      f+3     :     0.005744
      f-3     :     0.003234

  4 C s       :     3.067822  s :     3.067822
      pz      :     0.629020  p :     2.253470
      px      :     0.917767
      py      :     0.706684
      dz2     :     0.066940  d :     0.302865
      dxz     :     0.067479
      dyz     :     0.069802
      dx2y2   :     0.035260
      dxy     :     0.063383
      f0      :     0.004015  f :     0.028009
      f+1     :     0.004424
      f-1     :     0.007665
      f+2     :     0.002720
      f-2     :     0.003512
      f+3     :     0.003311
      f-3     :     0.002361

  5 C s       :     3.139960  s :     3.139960
      pz      :     0.601927  p :     2.234574
      px      :     0.902557
      py      :     0.730090
      dz2     :     0.078716  d :     0.305049
      dxz     :     0.063096
      dyz     :     0.061379
      dx2y2   :     0.038547
      dxy     :     0.063311
      f0      :     0.005255  f :     0.028533
      f+1     :     0.004210
      f-1     :     0.005927
      f+2     :     0.003887
      f-2     :     0.004339
      f+3     :     0.002554
      f-3     :     0.002362

  6 C s       :     3.115403  s :     3.115403
      pz      :     0.587680  p :     2.253416
      px      :     0.930704
      py      :     0.735033
      dz2     :     0.082939  d :     0.303449
      dxz     :     0.066246
      dyz     :     0.056441
      dx2y2   :     0.034806
      dxy     :     0.063017
      f0      :     0.006321  f :     0.028486
      f+1     :     0.004112
      f-1     :     0.004370
      f+2     :     0.004192
      f-2     :     0.005342
      f+3     :     0.002177
      f-3     :     0.001972

  7 C s       :     3.134236  s :     3.134236
      pz      :     0.610890  p :     2.259908
      px      :     0.930471
      py      :     0.718546
      dz2     :     0.075202  d :     0.303741
      dxz     :     0.062247
      dyz     :     0.066141
      dx2y2   :     0.037120
      dxy     :     0.063030
      f0      :     0.004652  f :     0.028501
      f+1     :     0.004168
      f-1     :     0.007052
      f+2     :     0.003193
      f-2     :     0.004158
      f+3     :     0.002956
      f-3     :     0.002322

  8 C s       :     3.102413  s :     3.102413
      pz      :     0.638013  p :     2.276225
      px      :     0.942698
      py      :     0.695515
      dz2     :     0.056911  d :     0.297178
      dxz     :     0.064015
      dyz     :     0.076599
      dx2y2   :     0.038731
      dxy     :     0.060921
      f0      :     0.003658  f :     0.028507
      f+1     :     0.005353
      f-1     :     0.008313
      f+2     :     0.002458
      f-2     :     0.001988
      f+3     :     0.004213
      f-3     :     0.002523

  9 C s       :     3.020529  s :     3.020529
      pz      :     0.658900  p :     2.167138
      px      :     0.841890
      py      :     0.666349
      dz2     :     0.071225  d :     0.363337
      dxz     :     0.066748
      dyz     :     0.090506
      dx2y2   :     0.065583
      dxy     :     0.069276
      f0      :     0.005372  f :     0.040454
      f+1     :     0.007789
      f-1     :     0.007796
      f+2     :     0.005840
      f-2     :     0.003129
      f+3     :     0.007094
      f-3     :     0.003435

 10 F s       :     3.919241  s :     3.919241
      pz      :     1.828381  p :     5.185950
      px      :     1.897607
      py      :     1.459962
      dz2     :     0.002093  d :     0.017381
      dxz     :     0.000222
      dyz     :     0.004881
      dx2y2   :     0.006145
      dxy     :     0.004040
      f0      :     0.000078  f :     0.000754
      f+1     :     0.000012
      f-1     :     0.000135
      f+2     :     0.000121
      f-2     :     0.000016
      f+3     :     0.000169
      f-3     :     0.000222

 11 F s       :     3.917629  s :     3.917629
      pz      :     1.775641  p :     5.219938
      px      :     1.903294
      py      :     1.541003
      dz2     :     0.002040  d :     0.015545
      dxz     :     0.000896
      dyz     :     0.005487
      dx2y2   :     0.004170
      dxy     :     0.002952
      f0      :     0.000080  f :     0.000692
      f+1     :     0.000004
      f-1     :     0.000132
      f+2     :     0.000201
      f-2     :     0.000072
      f+3     :     0.000091
      f-3     :     0.000113

 12 F s       :     3.917889  s :     3.917889
      pz      :     1.462682  p :     5.228409
      px      :     1.904160
      py      :     1.861568
      dz2     :     0.007399  d :     0.015072
      dxz     :     0.003300
      dyz     :     0.003698
      dx2y2   :     0.000262
      dxy     :     0.000414
      f0      :     0.000303  f :     0.000671
      f+1     :     0.000131
      f-1     :     0.000186
      f+2     :     0.000020
      f-2     :     0.000029
      f+3     :     0.000001
      f-3     :     0.000001

 13 F s       :     3.918578  s :     3.918578
      pz      :     1.701926  p :     5.216468
      px      :     1.886269
      py      :     1.628274
      dz2     :     0.002606  d :     0.015932
      dxz     :     0.001773
      dyz     :     0.006060
      dx2y2   :     0.002861
      dxy     :     0.002632
      f0      :     0.000078  f :     0.000705
      f+1     :     0.000022
      f-1     :     0.000181
      f+2     :     0.000179
      f-2     :     0.000122
      f+3     :     0.000063
      f-3     :     0.000059

 14 F s       :     3.918360  s :     3.918360
      pz      :     1.507468  p :     5.215524
      px      :     1.894824
      py      :     1.813232
      dz2     :     0.006237  d :     0.015990
      dxz     :     0.003312
      dyz     :     0.004866
      dx2y2   :     0.000696
      dxy     :     0.000879
      f0      :     0.000214  f :     0.000711
      f+1     :     0.000114
      f-1     :     0.000242
      f+2     :     0.000059
      f-2     :     0.000070
      f+3     :     0.000006
      f-3     :     0.000005

 15 F s       :     3.918434  s :     3.918434
      pz      :     1.566277  p :     5.212187
      px      :     1.899690
      py      :     1.746219
      dz2     :     0.004756  d :     0.016058
      dxz     :     0.002651
      dyz     :     0.005948
      dx2y2   :     0.001332
      dxy     :     0.001372
      f0      :     0.000137  f :     0.000712
      f+1     :     0.000062
      f-1     :     0.000273
      f+2     :     0.000116
      f-2     :     0.000093
      f+3     :     0.000017
      f-3     :     0.000015

 16 F s       :     3.918366  s :     3.918366
      pz      :     1.612088  p :     5.211195
      px      :     1.899948
      py      :     1.699158
      dz2     :     0.003863  d :     0.016154
      dxz     :     0.002303
      dyz     :     0.006351
      dx2y2   :     0.001879
      dxy     :     0.001758
      f0      :     0.000103  f :     0.000717
      f+1     :     0.000040
      f-1     :     0.000259
      f+2     :     0.000154
      f-2     :     0.000105
      f+3     :     0.000028
      f-3     :     0.000028

 17 F s       :     3.918761  s :     3.918761
      pz      :     1.738068  p :     5.212432
      px      :     1.897993
      py      :     1.576372
      dz2     :     0.002320  d :     0.016094
      dxz     :     0.001289
      dyz     :     0.006063
      dx2y2   :     0.003628
      dxy     :     0.002794
      f0      :     0.000079  f :     0.000712
      f+1     :     0.000007
      f-1     :     0.000162
      f+2     :     0.000207
      f-2     :     0.000094
      f+3     :     0.000076
      f-3     :     0.000086

 18 F s       :     3.918780  s :     3.918780
      pz      :     1.484171  p :     5.212099
      px      :     1.886232
      py      :     1.841697
      dz2     :     0.006897  d :     0.016099
      dxz     :     0.003760
      dyz     :     0.004255
      dx2y2   :     0.000531
      dxy     :     0.000656
      f0      :     0.000255  f :     0.000712
      f+1     :     0.000148
      f-1     :     0.000207
      f+2     :     0.000041
      f-2     :     0.000055
      f+3     :     0.000003
      f-3     :     0.000003

 19 F s       :     3.918131  s :     3.918131
      pz      :     1.834076  p :     5.211346
      px      :     1.895418
      py      :     1.481851
      dz2     :     0.002050  d :     0.016003
      dxz     :     0.000506
      dyz     :     0.004534
      dx2y2   :     0.005339
      dxy     :     0.003574
      f0      :     0.000078  f :     0.000711
      f+1     :     0.000006
      f-1     :     0.000121
      f+2     :     0.000166
      f-2     :     0.000044
      f+3     :     0.000128
      f-3     :     0.000169

 20 F s       :     3.915751  s :     3.915751
      pz      :     1.427860  p :     5.210861
      px      :     1.899567
      py      :     1.883434
      dz2     :     0.008658  d :     0.016156
      dxz     :     0.003862
      dyz     :     0.003342
      dx2y2   :     0.000156
      dxy     :     0.000138
      f0      :     0.000387  f :     0.000726
      f+1     :     0.000169
      f-1     :     0.000159
      f+2     :     0.000004
      f-2     :     0.000005
      f+3     :     0.000001
      f-3     :     0.000001

 21 F s       :     3.912873  s :     3.912873
      pz      :     1.869264  p :     5.205533
      px      :     1.886175
      py      :     1.450094
      dz2     :     0.002265  d :     0.016199
      dxz     :     0.000248
      dyz     :     0.003771
      dx2y2   :     0.006291
      dxy     :     0.003624
      f0      :     0.000071  f :     0.000760
      f+1     :     0.000010
      f-1     :     0.000147
      f+2     :     0.000128
      f-2     :     0.000018
      f+3     :     0.000152
      f-3     :     0.000233

 22 F s       :     3.911271  s :     3.911271
      pz      :     1.774663  p :     5.203837
      px      :     1.644002
      py      :     1.785172
      dz2     :     0.002239  d :     0.016256
      dxz     :     0.004387
      dyz     :     0.002459
      dx2y2   :     0.003104
      dxy     :     0.004068
      f0      :     0.000089  f :     0.000771
      f+1     :     0.000107
      f-1     :     0.000049
      f+2     :     0.000098
      f-2     :     0.000203
      f+3     :     0.000098
      f-3     :     0.000126

 23 F s       :     3.911442  s :     3.911442
      pz      :     1.452843  p :     5.204552
      px      :     1.877378
      py      :     1.874330
      dz2     :     0.008221  d :     0.016343
      dxz     :     0.003885
      dyz     :     0.003612
      dx2y2   :     0.000359
      dxy     :     0.000266
      f0      :     0.000354  f :     0.000773
      f+1     :     0.000181
      f-1     :     0.000185
      f+2     :     0.000029
      f-2     :     0.000021
      f+3     :     0.000001
      f-3     :     0.000002

 24 H s       :     0.582649  s :     0.582649
      pz      :     0.012966  p :     0.042064
      px      :     0.018102
      py      :     0.010996


SPIN
  0 C s       :    -0.019347  s :    -0.019347
      pz      :    -0.020814  p :    -0.047712
      px      :    -0.019075
      py      :    -0.007822
      dz2     :    -0.000012  d :     0.018251
      dxz     :     0.015811
      dyz     :     0.004208
      dx2y2   :    -0.000434
      dxy     :    -0.001321
      f0      :     0.000098  f :     0.001124
      f+1     :    -0.000050
      f-1     :     0.000095
      f+2     :     0.000792
      f-2     :     0.000226
      f+3     :    -0.000002
      f-3     :    -0.000036

  1 O s       :     0.000636  s :     0.000636
      pz      :     0.016783  p :     0.017141
      px      :    -0.000185
      py      :     0.000542
      dz2     :    -0.000039  d :    -0.000038
      dxz     :     0.000117
      dyz     :    -0.000055
      dx2y2   :    -0.000085
      dxy     :     0.000025
      f0      :    -0.000006  f :    -0.000020
      f+1     :    -0.000005
      f-1     :    -0.000005
      f+2     :     0.000000
      f-2     :    -0.000002
      f+3     :    -0.000002
      f-3     :    -0.000001

  2 O s       :     0.006353  s :     0.006353
      pz      :     0.140836  p :     0.147767
      px      :    -0.001968
      py      :     0.008899
      dz2     :    -0.000025  d :    -0.000395
      dxz     :     0.000017
      dyz     :    -0.000415
      dx2y2   :    -0.000082
      dxy     :     0.000110
      f0      :    -0.000041  f :    -0.000110
      f+1     :    -0.000006
      f-1     :    -0.000048
      f+2     :    -0.000016
      f-2     :    -0.000004
      f+3     :     0.000006
      f-3     :    -0.000002

  3 C s       :     0.050021  s :     0.050021
      pz      :     0.658972  p :     0.719907
      px      :     0.035752
      py      :     0.025183
      dz2     :    -0.001545  d :     0.002811
      dxz     :     0.001339
      dyz     :     0.002682
      dx2y2   :    -0.000275
      dxy     :     0.000610
      f0      :    -0.000698  f :    -0.001950
      f+1     :    -0.000603
      f-1     :    -0.000592
      f+2     :     0.000249
      f-2     :    -0.000044
      f+3     :    -0.000034
      f-3     :    -0.000227

  4 C s       :    -0.004053  s :    -0.004053
      pz      :     0.013674  p :    -0.014700
      px      :    -0.021238
      py      :    -0.007136
      dz2     :     0.003298  d :     0.011299
      dxz     :     0.004229
      dyz     :     0.004785
      dx2y2   :    -0.000248
      dxy     :    -0.000766
      f0      :     0.000415  f :     0.001391
      f+1     :     0.000124
      f-1     :     0.000102
      f+2     :     0.000174
      f-2     :     0.000513
      f+3     :     0.000029
      f-3     :     0.000034

  5 C s       :    -0.002754  s :    -0.002754
      pz      :    -0.002348  p :    -0.005373
      px      :    -0.002551
      py      :    -0.000473
      dz2     :    -0.000094  d :    -0.000324
      dxz     :     0.000029
      dyz     :    -0.000023
      dx2y2   :    -0.000184
      dxy     :    -0.000053
      f0      :     0.000013  f :     0.000031
      f+1     :     0.000006
      f-1     :     0.000002
      f+2     :     0.000014
      f-2     :    -0.000001
      f+3     :    -0.000004
      f-3     :     0.000001

  6 C s       :    -0.000172  s :    -0.000172
      pz      :     0.000466  p :     0.000172
      px      :    -0.000189
      py      :    -0.000106
      dz2     :     0.000004  d :    -0.000063
      dxz     :     0.000002
      dyz     :    -0.000003
      dx2y2   :    -0.000040
      dxy     :    -0.000026
      f0      :     0.000001  f :    -0.000001
      f+1     :    -0.000000
      f-1     :     0.000000
      f+2     :     0.000000
      f-2     :     0.000001
      f+3     :    -0.000001
      f-3     :    -0.000000

  7 C s       :    -0.000033  s :    -0.000033
      pz      :    -0.000011  p :    -0.000103
      px      :    -0.000059
      py      :    -0.000033
      dz2     :    -0.000001  d :    -0.000013
      dxz     :    -0.000000
      dyz     :    -0.000000
      dx2y2   :    -0.000014
      dxy     :     0.000003
      f0      :     0.000000  f :     0.000000
      f+1     :     0.000000
      f-1     :     0.000000
      f+2     :     0.000000
      f-2     :     0.000000
      f+3     :    -0.000000
      f-3     :    -0.000000

  8 C s       :     0.000002  s :     0.000002
      pz      :     0.000005  p :    -0.000019
      px      :    -0.000008
      py      :    -0.000016
      dz2     :    -0.000000  d :    -0.000002
      dxz     :     0.000000
      dyz     :     0.000000
      dx2y2   :    -0.000001
      dxy     :    -0.000001
      f0      :     0.000000  f :    -0.000000
      f+1     :     0.000000
      f-1     :     0.000000
      f+2     :     0.000000
      f-2     :    -0.000000
      f+3     :    -0.000000
      f-3     :     0.000000

  9 C s       :    -0.000003  s :    -0.000003
      pz      :    -0.000001  p :    -0.000006
      px      :    -0.000004
      py      :    -0.000000
      dz2     :    -0.000000  d :    -0.000002
      dxz     :    -0.000000
      dyz     :     0.000000
      dx2y2   :    -0.000001
      dxy     :    -0.000001
      f0      :     0.000000  f :    -0.000000
      f+1     :    -0.000000
      f-1     :     0.000000
      f+2     :     0.000000
      f-2     :    -0.000000
      f+3     :    -0.000000
      f-3     :    -0.000000

 10 F s       :     0.004746  s :     0.004746
      pz      :     0.089011  p :     0.079175
      px      :    -0.000157
      py      :    -0.009680
      dz2     :     0.000109  d :     0.001441
      dxz     :     0.000035
      dyz     :     0.001160
      dx2y2   :     0.000074
      dxy     :     0.000064
      f0      :     0.000006  f :     0.000019
      f+1     :    -0.000002
      f-1     :    -0.000008
      f+2     :     0.000018
      f-2     :     0.000002
      f+3     :     0.000002
      f-3     :     0.000000

 11 F s       :    -0.000266  s :    -0.000266
      pz      :     0.000495  p :     0.009921
      px      :    -0.000119
      py      :     0.009545
      dz2     :    -0.000006  d :     0.000031
      dxz     :     0.000003
      dyz     :     0.000027
      dx2y2   :    -0.000007
      dxy     :     0.000013
      f0      :     0.000000  f :    -0.000000
      f+1     :     0.000000
      f-1     :    -0.000001
      f+2     :     0.000000
      f-2     :    -0.000001
      f+3     :     0.000000
      f-3     :     0.000001

 12 F s       :     0.000418  s :     0.000418
      pz      :     0.010370  p :     0.025312
      px      :     0.004823
      py      :     0.010119
      dz2     :     0.000014  d :     0.000031
      dxz     :    -0.000016
      dyz     :    -0.000017
      dx2y2   :     0.000003
      dxy     :     0.000047
      f0      :     0.000001  f :     0.000003
      f+1     :    -0.000000
      f-1     :     0.000001
      f+2     :     0.000001
      f-2     :     0.000001
      f+3     :     0.000000
      f-3     :     0.000000

 13 F s       :     0.000094  s :     0.000094
      pz      :    -0.000000  p :     0.000820
      px      :     0.000514
      py      :     0.000307
      dz2     :     0.000000  d :     0.000000
      dxz     :    -0.000001
      dyz     :     0.000000
      dx2y2   :    -0.000000
      dxy     :     0.000001
      f0      :    -0.000000  f :    -0.000000
      f+1     :    -0.000000
      f-1     :    -0.000000
      f+2     :    -0.000000
      f-2     :    -0.000000
      f+3     :    -0.000000
      f-3     :     0.000000

 14 F s       :     0.000305  s :     0.000305
      pz      :    -0.000022  p :     0.000340
      px      :     0.000062
      py      :     0.000300
      dz2     :     0.000003  d :     0.000022
      dxz     :     0.000002
[...]
 11:     68.33   0.000011    0.06  0.000050  (-0.005717 -0.000370  0.004139)
 12:     71.49   0.000169    0.86  0.000739  (-0.000739  0.005425  0.026625)
 13:     96.42   0.000020    0.10  0.000065  (-0.002650  0.005211 -0.005520)
 14:    111.83   0.000161    0.82  0.000451  ( 0.014359  0.015161  0.003803)
 15:    134.21   0.000020    0.10  0.000047  (-0.000353  0.005135  0.004483)
 16:    161.36   0.000215    1.08  0.000415  ( 0.007340 -0.000429 -0.018996)
 17:    170.51   0.001546    7.81  0.002830  (-0.010782 -0.008422 -0.051405)
 18:    190.12   0.001713    8.66  0.002811  ( 0.000995 -0.025216  0.046631)
 19:    199.56   0.000051    0.26  0.000080  (-0.002870 -0.000342 -0.008484)
 20:    203.87   0.000030    0.15  0.000045  ( 0.006075  0.002138 -0.001927)
 21:    217.36   0.000243    1.23  0.000349  (-0.002160 -0.017329 -0.006614)
 22:    229.46   0.000053    0.27  0.000072  (-0.004869 -0.003731 -0.005890)
 23:    242.73   0.000054    0.27  0.000069  ( 0.006432 -0.001827 -0.004908)
 24:    247.85   0.000066    0.34  0.000084  ( 0.001399 -0.000726 -0.009004)
 25:    278.65   0.001608    8.13  0.001801  ( 0.039870 -0.012011 -0.008187)
 26:    296.89   0.000117    0.59  0.000123  ( 0.007391  0.005033 -0.006578)
 27:    309.85   0.000246    1.24  0.000248  ( 0.015156 -0.004091 -0.001276)
 28:    314.82   0.002510   12.69  0.002488  (-0.046675 -0.017556  0.001191)
 29:    330.28   0.000083    0.42  0.000078  ( 0.008191  0.003349 -0.000426)
 30:    346.97   0.000152    0.77  0.000137  (-0.006665 -0.003077  0.009125)
 31:    360.49   0.000495    2.50  0.000428  ( 0.004104  0.005864 -0.019415)
 32:    361.82   0.000102    0.51  0.000088  (-0.007215  0.003552 -0.004791)
 33:    369.67   0.000038    0.19  0.000032  (-0.004878  0.002314 -0.001665)
 34:    374.12   0.000110    0.56  0.000092  ( 0.006693 -0.000022 -0.006864)
 35:    413.42   0.000302    1.52  0.000228  ( 0.002664  0.008355  0.012282)
 36:    466.69   0.001287    6.50  0.000861  (-0.007978  0.005309 -0.027727)
 37:    508.16   0.016340   82.58  0.010035  ( 0.098022 -0.013405 -0.015707)
 38:    520.42   0.002052   10.37  0.001230  ( 0.005174  0.034301  0.005202)
 39:    524.23   0.006901   34.87  0.004108  (-0.029469  0.016693  0.054414)
 40:    546.16   0.015881   80.25  0.009074  ( 0.049039 -0.026194 -0.077350)
 41:    554.69   0.004071   20.57  0.002290  ( 0.000898 -0.047365 -0.006791)
 42:    561.77   0.028661  144.84  0.015921  ( 0.105128 -0.002403  0.069741)
 43:    577.85   0.006221   31.44  0.003360  (-0.056121  0.014461  0.000928)
 44:    597.08   0.000060    0.31  0.000032  ( 0.005418  0.000079  0.001478)
 45:    618.38   0.020479  103.49  0.010335  (-0.097894  0.026251  0.007885)
 46:    640.02   0.025288  127.79  0.012330  (-0.111025  0.001684 -0.000604)
 47:    684.25   0.000284    1.44  0.000130  ( 0.005056 -0.009444  0.003842)
 48:    692.31   0.013303   67.23  0.005996  ( 0.077269 -0.004040 -0.003099)
 49:    707.60   0.010505   53.09  0.004633  ( 0.016489 -0.011927 -0.064952)
 50:    715.59   0.000226    1.14  0.000098  (-0.001354  0.003473  0.009195)
 51:    747.34   0.000867    4.38  0.000362  ( 0.000045 -0.010960 -0.015547)
 52:    858.05   0.001506    7.61  0.000548  (-0.020179 -0.010710  0.005072)
 53:   1000.90   0.024376  123.19  0.007600  (-0.077358  0.027859 -0.028978)
 54:   1053.81   0.044807  226.43  0.013269  (-0.000361  0.011141 -0.114649)
 55:   1090.77   0.012975   65.57  0.003712  (-0.000588 -0.053041 -0.029974)
 56:   1106.68   0.014434   72.94  0.004070  (-0.034523  0.047771 -0.024417)
 57:   1122.71   0.093209  471.04  0.025908  (-0.011334 -0.157742 -0.029952)
 58:   1129.11   0.020879  105.51  0.005770  ( 0.071170  0.019587  0.017934)
 59:   1135.76   0.063983  323.34  0.017580  (-0.009448 -0.122836 -0.049011)
 60:   1143.12   0.013793   69.70  0.003765  (-0.005373  0.003555  0.061024)
 61:   1147.71   0.126509  639.32  0.034398  ( 0.037536 -0.015854  0.180935)
 62:   1155.00   0.054993  277.91  0.014858  (-0.028933  0.115255 -0.027158)
 63:   1159.58   0.070717  357.38  0.019031  (-0.012889 -0.015082  0.136520)
 64:   1176.94   0.080284  405.72  0.021287  (-0.011824 -0.070841  0.127000)
 65:   1181.34   0.042868  216.64  0.011324  ( 0.082840 -0.060926 -0.027378)
 66:   1209.90   0.015734   79.51  0.004058  (-0.008547 -0.058349 -0.024096)
 67:   1237.09   0.010426   52.69  0.002630  (-0.018853 -0.033598  0.033849)
 68:   1266.32   0.004889   24.71  0.001205  ( 0.022488  0.026224  0.003388)
 69:   1280.87   0.014886   75.23  0.003627  ( 0.040931 -0.044159  0.001192)
 70:   1324.13   0.004601   23.25  0.001084  (-0.018196  0.027334 -0.002479)
 71:   1345.50   0.030891  156.11  0.007165  (-0.078969 -0.030463 -0.000689)
 72:   1443.37   0.044091  222.82  0.009533  (-0.067110  0.069779 -0.012649)
 73:   1704.20   0.066437  335.75  0.012166  ( 0.011403  0.106695 -0.025529)
 74:   3630.91   0.051724  261.39  0.004445  (-0.066539 -0.003972 -0.001493)

* The epsilon (eps) is given for a Dirac delta lineshape.
** The dipole moment derivative (T) already includes vibrational overlap.

The first frequency considered to be a vibration is 6
The total number of vibrations considered is 69


--------------------------
THERMOCHEMISTRY AT 298.15K
--------------------------

Temperature         ...   298.15 K
Pressure            ...     1.00 atm
Total Mass          ...   395.07 AMU
Quasi RRHO          ...     True
Cut-Off Frequency   ...     1.00 cm^-1

Throughout the following assumptions are being made:
  (1) The electronic state is orbitally nondegenerate
      but the spin degeneracy is treated
  (2) There are no thermally accessible electronically excited states
  (3) Hindered rotations indicated by low frequency modes are not
      treated as such but are treated as vibrations and this may
      cause some error
  (4) All equations used are the standard statistical mechanics
      equations for an ideal gas
  (5) All vibrations are strictly harmonic

freq.      21.89  E(vib)   ...       0.56 
freq.      36.19  E(vib)   ...       0.54 
freq.      40.10  E(vib)   ...       0.54 
freq.      49.18  E(vib)   ...       0.52 
freq.      57.77  E(vib)   ...       0.51 
freq.      68.33  E(vib)   ...       0.50 
freq.      71.49  E(vib)   ...       0.50 
freq.      96.42  E(vib)   ...       0.47 
freq.     111.83  E(vib)   ...       0.45 
freq.     134.21  E(vib)   ...       0.42 
freq.     161.36  E(vib)   ...       0.39 
freq.     170.51  E(vib)   ...       0.38 
freq.     190.12  E(vib)   ...       0.36 
freq.     199.56  E(vib)   ...       0.35 
freq.     203.87  E(vib)   ...       0.35 
freq.     217.36  E(vib)   ...       0.34 
freq.     229.46  E(vib)   ...       0.32 
freq.     242.73  E(vib)   ...       0.31 
freq.     247.85  E(vib)   ...       0.31 
freq.     278.65  E(vib)   ...       0.28 
freq.     296.89  E(vib)   ...       0.27 
freq.     309.85  E(vib)   ...       0.26 
freq.     314.82  E(vib)   ...       0.25 
freq.     330.28  E(vib)   ...       0.24 
freq.     346.97  E(vib)   ...       0.23 
freq.     360.49  E(vib)   ...       0.22 
freq.     361.82  E(vib)   ...       0.22 
freq.     369.67  E(vib)   ...       0.21 
freq.     374.12  E(vib)   ...       0.21 
freq.     413.42  E(vib)   ...       0.19 
freq.     466.69  E(vib)   ...       0.16 
freq.     508.16  E(vib)   ...       0.14 
freq.     520.42  E(vib)   ...       0.13 
freq.     524.23  E(vib)   ...       0.13 
freq.     546.16  E(vib)   ...       0.12 
freq.     554.69  E(vib)   ...       0.12 
freq.     561.77  E(vib)   ...       0.11 
freq.     577.85  E(vib)   ...       0.11 
freq.     597.08  E(vib)   ...       0.10 
freq.     618.38  E(vib)   ...       0.09 
freq.     640.02  E(vib)   ...       0.09 
freq.     684.25  E(vib)   ...       0.07 
freq.     692.31  E(vib)   ...       0.07 
freq.     707.60  E(vib)   ...       0.07 
freq.     715.59  E(vib)   ...       0.07 
freq.     747.34  E(vib)   ...       0.06 
freq.     858.05  E(vib)   ...       0.04 
freq.    1000.90  E(vib)   ...       0.02 
freq.    1053.81  E(vib)   ...       0.02 
freq.    1090.77  E(vib)   ...       0.02 
freq.    1106.68  E(vib)   ...       0.02 
freq.    1122.71  E(vib)   ...       0.01 
freq.    1129.11  E(vib)   ...       0.01 
freq.    1135.76  E(vib)   ...       0.01 
freq.    1143.12  E(vib)   ...       0.01 
freq.    1147.71  E(vib)   ...       0.01 
freq.    1155.00  E(vib)   ...       0.01 
freq.    1159.58  E(vib)   ...       0.01 
freq.    1176.94  E(vib)   ...       0.01 
freq.    1181.34  E(vib)   ...       0.01 
freq.    1209.90  E(vib)   ...       0.01 
freq.    1237.09  E(vib)   ...       0.01 
freq.    1266.32  E(vib)   ...       0.01 
freq.    1280.87  E(vib)   ...       0.01 
freq.    1324.13  E(vib)   ...       0.01 
freq.    1345.50  E(vib)   ...       0.01 
freq.    1443.37  E(vib)   ...       0.00 
freq.    1704.20  E(vib)   ...       0.00 
freq.    3630.91  E(vib)   ...       0.00 

------------
INNER ENERGY
------------

The inner energy is: U= E(el) + E(ZPE) + E(vib) + E(rot) + E(trans)
    E(el)   - is the total energy from the electronic structure calculation
              = E(kin-el) + E(nuc-el) + E(el-el) + E(nuc-nuc)
    E(ZPE)  - the the zero temperature vibrational energy from the frequency calculation
    E(vib)  - the the finite temperature correction to E(ZPE) due to population
              of excited vibrational states
    E(rot)  - is the rotational thermal energy
    E(trans)- is the translational thermal energy

Summary of contributions to the inner energy U:
Electronic energy                ...  -1854.41571688 Eh
Zero point energy                ...      0.10450757 Eh      65.58 kcal/mol
Thermal vibrational correction   ...      0.02010770 Eh      12.62 kcal/mol
Thermal rotational correction    ...      0.00141627 Eh       0.89 kcal/mol
Thermal translational correction ...      0.00141627 Eh       0.89 kcal/mol
-----------------------------------------------------------------------
Total thermal energy                  -1854.28826907 Eh


Summary of corrections to the electronic energy:
(perhaps to be used in another calculation)
Total thermal correction                  0.02294024 Eh      14.40 kcal/mol
Non-thermal (ZPE) correction              0.10450757 Eh      65.58 kcal/mol
-----------------------------------------------------------------------
Total correction                          0.12744781 Eh      79.97 kcal/mol


--------
ENTHALPY
--------

The enthalpy is H = U + kB*T
                kB is Boltzmann's constant
Total thermal energy              ...  -1854.28826907 Eh 
Thermal Enthalpy correction       ...      0.00094421 Eh       0.59 kcal/mol
-----------------------------------------------------------------------
Total Enthalpy                    ...  -1854.28732486 Eh


Note: Only C1 symmetry has been detected, increase convergence thresholds 
      if your molecule has a higher symmetry. Symmetry factor of 1.0 is   
      used for the rotational entropy correction. 
 

Note: Rotational entropy computed according to Herzberg 
Infrared and Raman Spectra, Chapter V,1, Van Nostrand Reinhold, 1945 
Point Group:  C1, Symmetry Number:   1  
Rotational constants in cm-1:     0.023174     0.003944     0.003820 

Vibrational entropy computed according to the QRRHO of S. Grimme
Chem.Eur.J. 2012 18 9955 using a reference frequency of 100.0 cm-1


-------
ENTROPY
-------

The entropy contributions are T*S = T*(S(el)+S(vib)+S(rot)+S(trans))
     S(el)   - electronic entropy
     S(vib)  - vibrational entropy
     S(rot)  - rotational entropy
     S(trans)- translational entropy
The entropies will be listed as multiplied by the temperature to get
units of energy

Electronic entropy                ...      0.00065446 Eh      0.41 kcal/mol
Vibrational entropy               ...      0.03603803 Eh     22.61 kcal/mol
Rotational entropy                ...      0.01652964 Eh     10.37 kcal/mol
Translational entropy             ...      0.02081703 Eh     13.06 kcal/mol
-----------------------------------------------------------------------
Final entropy term                ...      0.07403916 Eh     46.46 kcal/mol

In case the symmetry of your molecule has not been determined correctly
or in case you have a reason to use a different symmetry number we print 
out the resulting rotational entropy values for sn=1,12:

 non-linear molecules -----------------------------------
|  sn= 1 | S(rot)=       0.01652964 Eh     10.37 kcal/mol|
|  sn= 2 | S(rot)=       0.01587519 Eh      9.96 kcal/mol|
|  sn= 3 | S(rot)=       0.01549235 Eh      9.72 kcal/mol|
|  sn= 4 | S(rot)=       0.01522073 Eh      9.55 kcal/mol|
|  sn= 5 | S(rot)=       0.01501004 Eh      9.42 kcal/mol|
|  sn= 6 | S(rot)=       0.01483790 Eh      9.31 kcal/mol|
|  sn= 7 | S(rot)=       0.01469235 Eh      9.22 kcal/mol|
|  sn= 8 | S(rot)=       0.01456627 Eh      9.14 kcal/mol|
|  sn= 9 | S(rot)=       0.01445506 Eh      9.07 kcal/mol|
|  sn=10 | S(rot)=       0.01435558 Eh      9.01 kcal/mol|
|  sn=11 | S(rot)=       0.01426559 Eh      8.95 kcal/mol|
|  sn=12 | S(rot)=       0.01418344 Eh      8.90 kcal/mol|
 linear molecules ---------------------------------------
|  Dinfh | S(rot)=       0.01058243 Eh      6.64 kcal/mol|
|  Cinfv | S(rot)=       0.01123688 Eh      7.05 kcal/mol|
 --------------------------------------------------------


-------------------
GIBBS FREE ENERGY
-------------------

The Gibbs free energy is G = H - T*S

Total enthalpy                    ...  -1854.28732486 Eh 
Total entropy correction          ...     -0.07403916 Eh    -46.46 kcal/mol
-----------------------------------------------------------------------
Final Gibbs free energy         ...  -1854.36136402 Eh

For completeness - the Gibbs free energy minus the electronic energy
G-E(el)                           ...      0.05435285 Eh     34.11 kcal/mol


Maximum memory used throughout the entire PROP-calculation: 545.8 MB

--------------------------------
SUGGESTED CITATIONS FOR THIS RUN
--------------------------------

Below you find a list of papers that are relevant to this ORCA run
We neither can nor want to force you to cite these papers, but we appreciate if you do
You receive ORCA, which is the product of decades of hard work by many enthusiastic individuals, for free
The only thing we kindly ask in return is that you cite our papers,
We deeply appreciate it, if you show your appreciation for ORCA by not just citing the generic ORCA reference.

Please note that relegating all ORCA citations to the supporting information does *not* help us.
SI sections are not indexed - citations you put there will not count into any citation statistics
But we need these citations in order to attract the funding resources that allow us to do what we are doing

Therefore, if you are a happy ORCA user, please consider citing a few of the papers listed below in the main body of your paper

In addition to the list printed below, the program has created the file rf_mecn_freq_TP_C2_P_B.bibtex that contains the list in bibtex format
You can import this file easily into all common literature databanks and citation aid programs


List of essential papers. We consider these as the minimum necessary citations

  1. Neese,F.
     Software update: the ORCA program system, version 5.0
     WIRES Comput. Molec. Sci., 2022 12(1)e1606
     doi.org/10.1002/wcms.1606

List of papers to cite with high priority. The work reported in these papers was absolutely
necessary for this run to complete.
Our perspective: the developers of density functionals and basis sets usually get cited in chemistry papers
Good! But without the algorithms to do something with them, the functionals or basis sets would not do anything.
Hence, in our opinion, the algorithm design and method developments papers are equally worthy of getting cited

  1. Neese,F.
     An improvement of the resolution of the identity approximation for the formation of the Coulomb matrix
     J. Comp. Chem., 2003 24(14)1740-1747
     doi.org/10.1002/jcc.10318
  2. Neese,F.; Wennmohs,F.; Hansen,A.; Becker,U.
     Efficient, approximate and parallel Hartree-Fock and hybrid DFT calculations. A 'chain-of-spheres' algorithm for the Hartree-Fock exchange
     Chem. Phys., 2009 356(1-3)98-109
     doi.org/10.1016/j.chemphys.2008.10.036
  3. Bykov,D.; Petrenko,T.; Izsak,R.; Kossmann,S.; Becker,U.; Valeev,E.; Neese,F.
     Efficient implementation of the analytic second derivatives of Hartree-Fock and hybrid DFT energies: a detailed analysis of different approximations
     Molec. Phys., 2015 113 1961-1977
     doi.org/10.1080/00268976.2015.1025114
  4. Garcia-Rates,M.; Neese,F.
     Efficient implementation of the analytical second derivatives of hartree-fock and hybrid DFT energies within the framework of the conductor-like polarizable continuum model
     J. Comput. Chem., 2019 40 1816-1828
     doi.org/10.1002/jcc.25833
  5. Garcia-Rates,M.; Neese,F.
     Effect of the Solute Cavity on the Solvation Energy and its Derivatives within the Framework of the Gaussian Charge Scheme
     J. Comput. Chem., 2020 41 922-939
     doi.org/10.1002/jcc.26139
  6. Helmich-Paris,B.; de Souza,B.; Neese,F.; Izsák,R.
     An improved chain of spheres for exchange algorithm
     J. Chem. Phys., 2021 155 104109
     doi.org/doi: 10.1063/5.0058766.
  7. Neese,F.
     The SHARK Integral Generation and Digestion System
     J. Comp. Chem., 2022  1-16
     doi.org/10.1002/jcc.26942
  8. Grimme,S.; Antony,J.; Ehrlich,S.; Krieg,H.
     A consistent and accurate ab initio parametrization of density functional dispersion correction (DFT-D) for the 94 elements H-Pu
     J. Chem. Phys., 2010 132 154104
     doi.org/10.1063/1.3382344
  9. Grimme,S.; Ehrlich,S.; Goerigk,L.
     Effect of the damping function in dispersion corrected density functional theory
     J. Comput. Chem., 2011 32(7)1456-1465
     doi.org/10.1002/jcc.21759

List of suggested additional citations. These are papers that are important in the 'surrounding' of 
of this run, or papers that preceded the highly important papers. If you like your results we are grateful for a citation.

  1. Izsak,R.; Neese,F.
     An overlap fitted chain of spheres exchange method
     J. Chem. Phys., 2011 135 144105
     doi.org/10.1063/1.3646921
  2. Izsak,R.; Hansen,A.; Neese,F.
     The resolution of identity and chain of spheres approximations for the LPNO-CCSD singles Fock term
     Molec. Phys., 2012 110 2413-2417
     doi.org/10.1080/00268976.2012.687466
  3. Neese,F.
     The ORCA program system
     WIRES Comput. Molec. Sci., 2012 2(1)73-78
     doi.org/10.1002/wcms.81
  4. Izsak,R.; Neese,F.; Klopper,W.
     Robust fitting techniques in the chain of spheres approximation to the Fock exchange: The role of the complementary space
     J. Chem. Phys., 2013 139 
     doi.org/10.1063/1.4819264
  5. Neese,F.
     Software update: the ORCA program system, version 4.0
     WIRES Comput. Molec. Sci., 2018 8(1)1-6
     doi.org/10.1002/wcms.1327
  6. Neese,F.; Wennmohs,F.; Becker,U.; Riplinger,C.
     The ORCA quantum chemistry program package
     J. Chem. Phys., 2020 152 Art. No. L224108
     doi.org/10.1063/5.0004608

List of optional additional citations

  1. Neese,F.
     Approximate second-order SCF convergence for spin unrestricted wavefunctions
     Chem. Phys. Lett., 2000 325(1-3)93-98
     doi.org/10.1016/s0009-2614(00)00662-x

Timings for individual modules:

Sum of individual times          ...     1480.538 sec (=  24.676 min)
Startup calculation              ...        3.832 sec (=   0.064 min)   0.3 %
SCF iterations                   ...      100.748 sec (=   1.679 min)   6.8 %
Property integrals               ...      454.689 sec (=   7.578 min)  30.7 %
SCF Response                     ...      641.619 sec (=  10.694 min)  43.3 %
Property calculations            ...      279.649 sec (=   4.661 min)  18.9 %
                             ****ORCA TERMINATED NORMALLY****
TOTAL RUN TIME: 0 days 0 hours 24 minutes 41 seconds 629 msec
