
                                 *****************
                                 * O   R   C   A *
                                 *****************

                                            #,                                       
                                            ###                                      
                                            ####                                     
                                            #####                                    
                                            ######                                   
                                           ########,                                 
                                     ,,################,,,,,                         
                               ,,#################################,,                 
                          ,,##########################################,,             
                       ,#########################################, ''#####,          
                    ,#############################################,,   '####,        
                  ,##################################################,,,,####,       
                ,###########''''           ''''###############################       
              ,#####''   ,,,,##########,,,,          '''####'''          '####       
            ,##' ,,,,###########################,,,                        '##       
           ' ,,###''''                  '''############,,,                           
         ,,##''                                '''############,,,,        ,,,,,,###''
      ,#''                                            '''#######################'''  
     '                                                          ''''####''''         
             ,#######,   #######,   ,#######,      ##                                
            ,#'     '#,  ##    ##  ,#'     '#,    #''#        ,####,   ,####,        
            ##       ##  ##   ,#'  ##            #'  '#       #'       #'  '#        
            ##       ##  #######   ##           ,######,      #####,   #    #        
            '#,     ,#'  ##    ##  '#,     ,#' ,#      #,     #,   #   #,  ,#        
             '#######'   ##     ##  '#######'  #'      '#     '####' # '####'        



                #########################################################
                #                        -***-                          #
                #          Department of theory and spectroscopy        #
                #                                                       #
                #                      Frank Neese                      #
                #                                                       #
                #     Directorship, Architecture, Infrastructure        #
                #                    SHARK, DRIVERS                     #
                #        Core code/Algorithms in most modules           #
                #                                                       #
                #        Max Planck Institute fuer Kohlenforschung      #
                #                Kaiser Wilhelm Platz 1                 #
                #                 D-45470 Muelheim/Ruhr                 #
                #                      Germany                          #
                #                                                       #
                #                  All rights reserved                  #
                #                        -***-                          #
                #########################################################


                         Program Version 6.0.1  -  RELEASE   -


 With contributions from (in alphabetic order):
[Max-Planck-Institut fuer Kohlenforschung]                               
  Daniel Aravena         : Magnetic Suceptibility                        
  Michael Atanasov       : Ab Initio Ligand Field Theory (pilot matlab implementation)
  Alexander A. Auer      : GIAO ZORA, VPT2 properties, NMR spectrum      
  Ute Becker             : All parallelization in ORCA, NUMFREQ, NUMCALC 
  Giovanni Bistoni       : ED, misc. LED, open-shell LED, HFLD           
  Martin Brehm           : Molecular dynamics                            
  Dmytro Bykov           : pre 5.0 version of the SCF Hessian            
  Marcos Casanova-Páez   : Triplet and SCS-CIS(D). UHF-(DLPNO)-IP/EA/STEOM-CCSD. UHF-CVS-IP/STEOM-CCSD   
  Vijay G. Chilkuri      : MRCI spin determinant printing, contributions to CSF-ICE 
  Pauline Colinet        : FMM embedding                                 
  Dipayan Datta          : RHF DLPNO-CCSD density                        
  Achintya Kumar Dutta   : EOM-CC, STEOM-CC                              
  Nicolas Foglia         : Exact transition moments, OPA infrastructure, MCD improvements    
  Dmitry Ganyushin       : Spin-Orbit,Spin-Spin,Magnetic field MRCI      
  Miquel Garcia-Rates    : C-PCM and meta-GGA Hessian, CCSD/C-PCM, Gaussian charge scheme 
  Tiago L. C. Gouveia    : GS-ROHF, GS-ROCIS                             
  Yang Guo               : DLPNO-NEVPT2, F12-NEVPT2, CIM, IAO-localization        
  Andreas Hansen         : Spin unrestricted coupled pair/coupled cluster methods 
  Ingolf Harden          : AUTO-CI MPn and infrastructure                
  Benjamin Helmich-Paris : MC-RPA, TRAH-(SCF,CASSCF), AVAS, COSX integrals, SCF dyn. polar. 
  Lee Huntington         : MR-EOM, pCC                                   
  Robert Izsak           : Overlap fitted RIJCOSX, COSX-SCS-MP3, EOM     
  Riya Kayal             : Wick's Theorem for AUTO-CI, AUTO-CI UHF-CCSDT 
  Emily Kempfer          : AUTO-CI, RHF CISDT and CCSDT                  
  Christian Kollmar      : KDIIS, OOCD, Brueckner-CCSD(T), CCSD density, CASPT2, CASPT2-K, improved NEVPT2 
  Axel Koslowski         : Symmetry handling                             
  Simone Kossmann        : meta-GGA functionals, TD-DFT gradient, OOMP2, (MP2 Hessian; deprecated post 5.0) 
  Lucas Lang             : DCDCAS                                        
  Marvin Lechner         : AUTO-CI (C++ implementation), FIC-MRCC        
  Spencer Leger          : CASSCF response                               
  Dagmar Lenk            : GEPOL surface, SMD, ORCA-2-JSON               
  Dimitrios Liakos       : Extrapolation schemes; Compound Job, initial MDCI parallelization 
  Dimitrios Manganas     : Further ROCIS development; embedding schemes. LFT, Crystal Embedding 
  Dimitrios Pantazis     : SARC Basis sets                               
  Anastasios Papadopoulos: AUTO-CI, single reference methods and gradients 
  Taras Petrenko         : pre 6.0 DFT Hessian and TD-DFT gradient, (ASA, deprecated), ECA, 1-Electron XAS/XES, NRVS 
  Peter Pinski           : DLPNO-MP2, DLPNO-MP2 Gradient                 
  Christoph Reimann      : Effective Core Potentials                     
  Marius Retegan         : Local ZFS, SOC                                
  Christoph Riplinger    : Optimizer, TS searches, QM/MM, DLPNO-CCSD(T), (RO)-DLPNO pert. Triples 
  Michael Roemelt        : Original ROCIS implementation                 
  Masaaki Saitow         : Open-shell DLPNO-CCSD energy and density      
  Barbara Sandhoefer     : DKH picture change effects                    
  Kantharuban Sivalingam : CASSCF convergence/infrastructure, NEVPT2 and variants, FIC-MRCI 
  Bernardo de Souza      : ESD, SOC TD-DFT                               
  Georgi L. Stoychev     : AutoAux, RI-MP2 NMR, DLPNO-MP2 response, X2C  
  Van Anh Tran           : RI-MP2 g-tensors                              
  Willem Van den Heuvel  : Paramagnetic NMR                              
  Zikuan Wang            : NOTCH, Electric field optimization            
  Frank Wennmohs         : Technical directorship and infrastructure     
  Hang Xu                : AUTO-CI-Response properties                   
                                                                         
[FACCTs GmbH]                                                            
  Markus Bursch, Miquel Garcia-Rates, Christoph Riplinger, Bernardo de Souza, Georgi L. Stoychev 
                                                                 
  APM, Basis sets (HGBS, AHGBS, def-TZVP (Ac-Lr), def2-XVPD (La-Lu)), CI-OPT, improved COSX, DLPNO-Multilevel,           
  DOCKER, DRACO, updates on ESD, GOAT, IRC, LR-CPCM, MBIS, meta-GGA TD-DFT gradient, ML-optimized integration grids, 
  MM, NACMEs, nearIR, NEB, NEB-TS, NL-DFT gradient (VV10), 2- and 3-layer-ONIOM, interface openCOSMO-RS, QMMM,   
  Crystal-QMMM, SF, symmetry and pop. for TD-DFT, r2SCAN hybrids, SOLVATOR                                   
                                                                         
[Other institutions]                                                     
  V. Asgeirsson          : NEB                                           
  Christoph Bannwarth    : sTDA-DFT, sTD-DFT, PBEh-3c, B97-3c, D3        
  Sebastian Ehlert       : rSCAN, r2SCAN, r2SCAN-3c, D4, dhf basis sets  
  Marvin Friede          : D4 for Fr, Ra, Ac-Lr                          
  Lars Goerigk           : TD-DFT with DH, B97 family of functionals     
  Stefan Grimme          : VdW corrections, initial TS optimization, DFT functionals, gCP, sTDA/sTD-DF 
  Waldemar Hujo          : DFT-NL                                        
  H. Jonsson             : NEB                                           
  Holger Kruse           : gCP                                           
  Marcel Mueller         : wB97X-3c, vDZP basis set                      
  Hagen Neugebauer       : wr2SCAN                                       
  Tobias Risthaus        : range-separated hybrid DFT                    
  Lukas Wittmann         : regularized MP2, r2SCAN double-hybrids, wr2SCAN        
                                                                         
We gratefully acknowledge several colleagues who have allowed us to      
interface, adapt or use parts of their codes:                            
  Ed Valeev, F. Pavosevic, A. Kumar             : LibInt (2-el integral package), F12 methods 
  Garnet Chan, S. Sharma, J. Yang, R. Olivares  : DMRG                   
  Ulf Ekstrom                                   : XCFun DFT Library      
  Mihaly Kallay                                 : mrcc  (arbitrary order and MRCC methods)
  Frank Weinhold                                : gennbo (NPA and NBO analysis)           
  Simon Mueller                                 : openCOSMO-RS                            
  Christopher J. Cramer and Donald G. Truhlar   : smd solvation model                     
  S Lehtola, MJT Oliveira, MAL Marques          : LibXC Library                           
  Liviu Ungur et al                             : ANISO software                          


 Your calculation uses the libint2 library for the computation of 2-el integrals
 For citations please refer to: http://libint.valeyev.net

 Your ORCA version has been built with support for libXC version: 6.2.2
 For citations please refer to: https://libxc.gitlab.io

 This ORCA versions uses:
   CBLAS   interface :  Fast vector & matrix operations
   LAPACKE interface :  Fast linear algebra routines
   SCALAPACK package :  Parallel linear algebra routines
   Shared memory     :  Shared parallel matrices
   BLAS/LAPACK       :  OpenBLAS 0.3.27  USE64BITINT DYNAMIC_ARCH NO_AFFINITY SkylakeX SINGLE_THREADED
        Core in use  :  SkylakeX
   Copyright (c) 2011-2014, The OpenBLAS Project


NOTE: MaxCore=8000 MB was set to SCF,MP2,MDCI,CIPSI,MRCI and CIS
      => If you want to overwrite this, your respective input block should be placed after the MaxCore statement
Your calculation utilizes the atom-pairwise dispersion correction
with the Becke-Johnson damping scheme (D3BJ)


Your calculation utilizes the SMD solvation module
Please cite in your paper:
A.V. Marenich, C.J. Cramer, D.G. Truhlar J. Phys. Chem. B, 113, (2009), 6378 

Warning: RI is on but no J-basis has been assigned. Assigning Def2/J (nothing to worry about!)
================================================================================

----- Orbital basis set information -----
Your calculation utilizes the basis: def2-TZVP
   F. Weigend and R. Ahlrichs, Phys. Chem. Chem. Phys. 7, 3297 (2005).

----- AuxJ basis set information -----
Your calculation utilizes the auxiliary basis: def2/J
   F. Weigend, Phys. Chem. Chem. Phys. 8, 1057 (2006).

================================================================================
                                        WARNINGS
                       Please study these warnings very carefully!
================================================================================


WARNING: your system is open-shell and RHF/RKS was chosen
  ===> : WILL SWITCH to UHF/UKS


================================================================================
                                       INPUT FILE
================================================================================
NAME = rf_mecn_freq_TP_C6_D_B.inp
|  1> !TPSSh def2-TZVP freq d3 TightSCF SlowConv defgrid2
|  2>  
|  3> %pal
|  4> nprocs 20
|  5> end
|  6>  
|  7> %scf
|  8> MaxIter 1500
|  9> end
| 10>  
| 11> %maxcore 8000
| 12>  
| 13> !CPCM
| 14> %cpcm smd true
| 15> SMDsolvent "ACETONITRILE"
| 16> end
| 17>  
| 18> * xyz -1 2
| 19> 6        4.632930661     -0.041778802     -0.777541618
| 20> 8        4.927839954     -0.917195020     -1.649816047
| 21> 8        5.084321504      1.112482703     -0.526930161
| 22> 6        3.446295593     -0.438865204      0.194680872
| 23> 6        2.130538141      0.312326804     -0.156088668
| 24> 6        0.822250510     -0.315199380      0.431136515
| 25> 6       -0.419680351      0.635719604      0.420682322
| 26> 6       -1.707460837     -0.089131595      0.671202234
| 27> 6       -3.085596988      0.469043393      0.457640014
| 28> 6       -3.925751848     -0.297911081     -0.612289691
| 29> 9        3.172953547     -1.780679206      0.157276519
| 30> 9        3.760318456     -0.149598461      1.497149429
| 31> 9        2.218531753      1.595241837      0.270281499
| 32> 9        2.003155040      0.330196519     -1.510757132
| 33> 9        0.504271528     -1.410847996     -0.300092119
| 34> 9        1.044591877     -0.698184389      1.710545414
| 35> 9       -0.229224331      1.614665395      1.357585494
| 36> 9       -0.482682557      1.252680228     -0.790283011
| 37> 9       -1.659966744     -1.209533259      1.379472722
| 38> 9       -3.004843509      1.760448993      0.059979002
| 39> 9       -3.792623282      0.421272435      1.623348322
| 40> 9       -4.094455086     -1.574028468     -0.242778575
| 41> 9       -5.129127350      0.272484861     -0.753879730
| 42> 9       -3.298608759     -0.274198096     -1.796649297
| 43> *
| 44> 
| 45>                          ****END OF INPUT****
================================================================================

                       ****************************
                       * Single Point Calculation *
                       ****************************

---------------------------------
CARTESIAN COORDINATES (ANGSTROEM)
---------------------------------
  C      4.632931   -0.041779   -0.777542
  O      4.927840   -0.917195   -1.649816
  O      5.084322    1.112483   -0.526930
  C      3.446296   -0.438865    0.194681
  C      2.130538    0.312327   -0.156089
  C      0.822251   -0.315199    0.431137
  C     -0.419680    0.635720    0.420682
  C     -1.707461   -0.089132    0.671202
  C     -3.085597    0.469043    0.457640
  C     -3.925752   -0.297911   -0.612290
  F      3.172954   -1.780679    0.157277
  F      3.760318   -0.149598    1.497149
  F      2.218532    1.595242    0.270281
  F      2.003155    0.330197   -1.510757
  F      0.504272   -1.410848   -0.300092
  F      1.044592   -0.698184    1.710545
  F     -0.229224    1.614665    1.357585
  F     -0.482683    1.252680   -0.790283
  F     -1.659967   -1.209533    1.379473
  F     -3.004844    1.760449    0.059979
  F     -3.792623    0.421272    1.623348
  F     -4.094455   -1.574028   -0.242779
  F     -5.129127    0.272485   -0.753880
  F     -3.298609   -0.274198   -1.796649

----------------------------
CARTESIAN COORDINATES (A.U.)
----------------------------
  NO LB      ZA    FRAG     MASS         X           Y           Z
   0 C     6.0000    0    12.011    8.754970   -0.078950   -1.469341
   1 O     8.0000    0    15.999    9.312268   -1.733247   -3.117701
   2 O     8.0000    0    15.999    9.607975    2.102288   -0.995754
   3 C     6.0000    0    12.011    6.512555   -0.829335    0.367894
   4 C     6.0000    0    12.011    4.026134    0.590212   -0.294965
   5 C     6.0000    0    12.011    1.553828   -0.595641    0.814730
   6 C     6.0000    0    12.011   -0.793081    1.201336    0.794974
   7 C     6.0000    0    12.011   -3.226633   -0.168434    1.268388
   8 C     6.0000    0    12.011   -5.830933    0.886364    0.864814
   9 C     6.0000    0    12.011   -7.418596   -0.562970   -1.157060
  10 F     9.0000    0    18.998    5.996013   -3.364996    0.297210
  11 F     9.0000    0    18.998    7.105972   -0.282700    2.829202
  12 F     9.0000    0    18.998    4.192417    3.014570    0.510758
  13 F     9.0000    0    18.998    3.785414    0.623981   -2.854917
  14 F     9.0000    0    18.998    0.952935   -2.666116   -0.567092
  15 F     9.0000    0    18.998    1.973993   -1.319377    3.232462
  16 F     9.0000    0    18.998   -0.433171    3.051275    2.565465
  17 F     9.0000    0    18.998   -0.912138    2.367223   -1.493418
  18 F     9.0000    0    18.998   -3.136883   -2.285687    2.606826
  19 F     9.0000    0    18.998   -5.678331    3.326766    0.113344
  20 F     9.0000    0    18.998   -7.167019    0.796090    3.067684
  21 F     9.0000    0    18.998   -7.737399   -2.974483   -0.458785
  22 F     9.0000    0    18.998   -9.692646    0.514922   -1.424626
  23 F     9.0000    0    18.998   -6.233467   -0.518159   -3.395175

--------------------------------
INTERNAL COORDINATES (ANGSTROEM)
--------------------------------
 C      0   0   0     0.000000000000     0.00000000     0.00000000
 O      1   0   0     1.270506877322     0.00000000     0.00000000
 O      1   2   0     1.264468037338   133.01468140     0.00000000
 C      1   2   3     1.584612560004   114.98548470   178.85930420
 C      4   1   2     1.555167635841   111.97122682   255.08734963
 C      5   4   1     1.565323944934   115.39586766   161.84517272
 C      6   5   4     1.564208575538   114.66890476   163.69250485
 C      7   6   5     1.498848914041   112.77098856   166.03137484
 C      8   7   6     1.502140935376   125.78806503   192.95315058
 C      9   8   7     1.561675039056   114.10976868   117.88886384
 F      4   1   2     1.369883124831   112.21756637    15.88952426
 F      4   1   2     1.370660406179   111.01220445   134.51051325
 F      5   4   1     1.354771337517   109.35821323   284.35084996
 F      5   4   1     1.360761708930   108.06433913    41.53209407
 F      6   5   4     1.355083701444   108.53165172   283.95886365
 F      6   5   4     1.353883426089   109.30858880    42.30403755
 F      7   6   5     1.368355184510   108.65288435   288.96142628
 F      7   6   5     1.360531781053   108.56559238    44.92943412
 F      8   7   6     1.326349373934   117.83985410    27.02936936
 F      9   8   7     1.353655727483   109.97028346   357.12042351
 F      9   8   7     1.364200903158   109.93715620   237.86359148
 F     10   9   8     1.339206792382   110.28617328    60.67101641
 F     10   9   8     1.339220619841   110.28407310   180.83071516
 F     10   9   8     1.340365038362   110.17999891   300.74533922

---------------------------
INTERNAL COORDINATES (A.U.)
---------------------------
 C      0   0   0     0.000000000000     0.00000000     0.00000000
 O      1   0   0     2.400910049402     0.00000000     0.00000000
 O      1   2   0     2.389498295665   133.01468140     0.00000000
 C      1   2   3     2.994483766779   114.98548470   178.85930420
 C      4   1   2     2.938840924078   111.97122682   255.08734963
 C      5   4   1     2.958033566794   115.39586766   161.84517272
 C      6   5   4     2.955925824098   114.66890476   163.69250485
 C      7   6   5     2.832413963663   112.77098856   166.03137484
 C      8   7   6     2.838634982414   125.78806503   192.95315058
 C      9   8   7     2.951138133997   114.10976868   117.88886384
 F      4   1   2     2.588703941412   112.21756637    15.88952426
 F      4   1   2     2.590172790287   111.01220445   134.51051325
 F      5   4   1     2.560146801993   109.35821323   284.35084996
 F      5   4   1     2.571466963405   108.06433913    41.53209407
 F      6   5   4     2.560737084269   108.53165172   283.95886365
 F      6   5   4     2.558468892563   109.30858880    42.30403755
 F      7   6   5     2.585816552655   108.65288435   288.96142628
 F      7   6   5     2.571032462686   108.56559238    44.92943412
 F      8   7   6     2.506437074634   117.83985410    27.02936936
 F      9   8   7     2.558038604556   109.97028346   357.12042351
 F      9   8   7     2.577966098616   109.93715620   237.86359148
 F     10   9   8     2.530734074290   110.28617328    60.67101641
 F     10   9   8     2.530760204400   110.28407310   180.83071516
 F     10   9   8     2.532922841987   110.17999891   300.74533922

---------------------
BASIS SET INFORMATION
---------------------
There are 3 groups of distinct atoms

 Group   1 Type C   : 11s6p2d1f contracted to 5s3p2d1f pattern {62111/411/11/1}
 Group   2 Type O   : 11s6p2d1f contracted to 5s3p2d1f pattern {62111/411/11/1}
 Group   3 Type F   : 11s6p2d1f contracted to 5s3p2d1f pattern {62111/411/11/1}

Atom   0C    basis set group =>   1
Atom   1O    basis set group =>   2
Atom   2O    basis set group =>   2
Atom   3C    basis set group =>   1
Atom   4C    basis set group =>   1
Atom   5C    basis set group =>   1
Atom   6C    basis set group =>   1
Atom   7C    basis set group =>   1
Atom   8C    basis set group =>   1
Atom   9C    basis set group =>   1
Atom  10F    basis set group =>   3
Atom  11F    basis set group =>   3
Atom  12F    basis set group =>   3
Atom  13F    basis set group =>   3
Atom  14F    basis set group =>   3
Atom  15F    basis set group =>   3
Atom  16F    basis set group =>   3
Atom  17F    basis set group =>   3
Atom  18F    basis set group =>   3
Atom  19F    basis set group =>   3
Atom  20F    basis set group =>   3
Atom  21F    basis set group =>   3
Atom  22F    basis set group =>   3
Atom  23F    basis set group =>   3
---------------------------------
AUXILIARY/J BASIS SET INFORMATION
---------------------------------
There are 3 groups of distinct atoms

 Group   1 Type C   : 12s5p4d2f1g contracted to 6s4p3d1f1g pattern {711111/2111/211/2/1}
 Group   2 Type O   : 12s5p4d2f1g contracted to 6s4p3d1f1g pattern {711111/2111/211/2/1}
 Group   3 Type F   : 12s5p4d2f1g contracted to 6s4p3d1f1g pattern {711111/2111/211/2/1}

Atom   0C    basis set group =>   1
Atom   1O    basis set group =>   2
Atom   2O    basis set group =>   2
Atom   3C    basis set group =>   1
Atom   4C    basis set group =>   1
Atom   5C    basis set group =>   1
Atom   6C    basis set group =>   1
Atom   7C    basis set group =>   1
Atom   8C    basis set group =>   1
Atom   9C    basis set group =>   1
Atom  10F    basis set group =>   3
Atom  11F    basis set group =>   3
Atom  12F    basis set group =>   3
Atom  13F    basis set group =>   3
Atom  14F    basis set group =>   3
Atom  15F    basis set group =>   3
Atom  16F    basis set group =>   3
Atom  17F    basis set group =>   3
Atom  18F    basis set group =>   3
Atom  19F    basis set group =>   3
Atom  20F    basis set group =>   3
Atom  21F    basis set group =>   3
Atom  22F    basis set group =>   3
Atom  23F    basis set group =>   3


           ************************************************************
           *        Program running with 20 parallel MPI-processes    *
           *              working on a common directory               *
           ************************************************************
------------------------------------------------------------------------------
                             ORCA STARTUP CALCULATIONS
                           -- RI-GTO INTEGRALS CHOSEN --
------------------------------------------------------------------------------
------------------------------------------------------------------------------
                   ___                                                        
                  /   \      - P O W E R E D   B Y -                         
                 /     \                                                     
                 |  |  |   _    _      __       _____    __    __             
                 |  |  |  | |  | |    /  \     |  _  \  |  |  /  |          
                  \  \/   | |  | |   /    \    | | | |  |  | /  /          
                 / \  \   | |__| |  /  /\  \   | |_| |  |  |/  /          
                |  |  |   |  __  | /  /__\  \  |    /   |      \           
                |  |  |   | |  | | |   __   |  |    \   |  |\   \          
                \     /   | |  | | |  |  |  |  | |\  \  |  | \   \       
                 \___/    |_|  |_| |__|  |__|  |_| \__\ |__|  \__/        
                                                                              
                      - O R C A' S   B I G   F R I E N D -                    
                                      &                                       
                       - I N T E G R A L  F E E D E R -                       
                                                                              
 v1 FN, 2020, v2 2021, v3 2022-2024                                           
------------------------------------------------------------------------------


----------------------
SHARK INTEGRAL PACKAGE
----------------------

Number of atoms                             ...     24
Number of basis functions                   ...    744
Number of shells                            ...    264
Maximum angular momentum                    ...      3
Integral batch strategy                     ... SHARK/LIBINT Hybrid
RI-J (if used) integral strategy            ... SPLIT-RIJ (Revised 2003 algorithm where possible)
Printlevel                                  ...      1
Contraction scheme used                     ... SEGMENTED contraction
Prescreening option                         ... SCHWARTZ
   Thresh                                   ... 2.500e-11
   Tcut                                     ... 2.500e-12
   Tpresel                                  ... 2.500e-12 
Coulomb Range Separation                    ... NOT USED
Exchange Range Separation                   ... NOT USED
Multipole approximations                    ... NOT USED
Finite Nucleus Model                        ... NOT USED
CABS basis                                  ... NOT available
Auxiliary Coulomb fitting basis             ... AVAILABLE
   # of basis functions in Aux-J            ...   1176
   # of shells in Aux-J                     ...    360
   Maximum angular momentum in Aux-J        ...      4
Auxiliary J/K fitting basis                 ... NOT available
Auxiliary Correlation fitting basis         ... NOT available
Auxiliary 'external' fitting basis          ... NOT available

Checking pre-screening integrals            ... done (  0.0 sec) Dimension = 264
Check shell pair data                       ... done (  0.0 sec)
Shell pair information
Shell pair cut-off parameter TPreSel        ...   2.5e-12
Total number of shell pairs                 ...     34980
Shell pairs after pre-screening             ...     21754
Total number of primitive shell pairs       ...    115968
Primitive shell pairs kept                  ...     46384
          la=0 lb=0:   4069 shell pairs
          la=1 lb=0:   5919 shell pairs
          la=1 lb=1:   2068 shell pairs
          la=2 lb=0:   3231 shell pairs
          la=2 lb=1:   2388 shell pairs
          la=2 lb=2:    682 shell pairs
          la=3 lb=0:   1477 shell pairs
          la=3 lb=1:   1151 shell pairs
          la=3 lb=2:    619 shell pairs
          la=3 lb=3:    150 shell pairs

Calculating one electron integrals          ... done (  0.0 sec)
Calculating RI/J V-Matrix + Cholesky decomp.... done (  0.1 sec)
Calculating Nuclear repulsion               ... done (  0.0 sec) ENN=   2616.963257639105 Eh

Diagonalization of the overlap matrix:
Smallest eigenvalue                        ... 5.418e-05
Time for diagonalization                   ...    0.113 sec
Threshold for overlap eigenvalues          ... 1.000e-07
Number of eigenvalues below threshold      ... 0
Time for construction of square roots      ...    0.043 sec
Total time needed                          ...    0.161 sec

-------------------
DFT GRID GENERATION
-------------------

General Integration Accuracy     IntAcc      ... 4.388
Radial Grid Type                 RadialGrid  ... OptM3 with GC (2021)
Angular Grid (max. ang.)         AngularGrid ... 4 (Lebedev-302)
Angular grid pruning method      GridPruning ... 4 (adaptive)
Weight generation scheme         WeightScheme... mBecke (2022)
Basis function cutoff            BFCut       ... 1.0000e-11
Integration weight cutoff        WCut        ... 1.0000e-14
Partially contracted basis set               ... off
Rotationally invariant grid construction     ... off
Angular grids for H and He will be reduced by one unit

Total number of grid points                  ...   145520
Total number of batches                      ...     2285
Average number of points per batch           ...       63
Average number of grid points per atom       ...     6063

--------------------
COSX GRID GENERATION
--------------------

GRIDX 1
-------
General Integration Accuracy     IntAcc      ... 3.816
Radial Grid Type                 RadialGrid  ... OptM3 with GC (2021)
Angular Grid (max. ang.)         AngularGrid ... 1 (Lebedev-50)
Angular grid pruning method      GridPruning ... 4 (adaptive)
Weight generation scheme         WeightScheme... mBecke (2022)
Basis function cutoff            BFCut       ... 1.0000e-11
Integration weight cutoff        WCut        ... 1.0000e-14
Partially contracted basis set               ... on
Rotationally invariant grid construction     ... off
Angular grids for H and He will be reduced by one unit

Total number of grid points                  ...    18289
Total number of batches                      ...      153
Average number of points per batch           ...      119
Average number of grid points per atom       ...      762
UseSFitting                                  ... on

GRIDX 2
-------
General Integration Accuracy     IntAcc      ... 4.020
Radial Grid Type                 RadialGrid  ... OptM3 with GC (2021)
Angular Grid (max. ang.)         AngularGrid ... 2 (Lebedev-110)
Angular grid pruning method      GridPruning ... 4 (adaptive)
Weight generation scheme         WeightScheme... mBecke (2022)
Basis function cutoff            BFCut       ... 1.0000e-11
Integration weight cutoff        WCut        ... 1.0000e-14
Partially contracted basis set               ... on
Rotationally invariant grid construction     ... off
Angular grids for H and He will be reduced by one unit

Total number of grid points                  ...    43333
Total number of batches                      ...      353
Average number of points per batch           ...      122
Average number of grid points per atom       ...     1806
UseSFitting                                  ... on

GRIDX 3
-------
General Integration Accuracy     IntAcc      ... 4.338
Radial Grid Type                 RadialGrid  ... OptM3 with GC (2021)
Angular Grid (max. ang.)         AngularGrid ... 3 (Lebedev-194)
Angular grid pruning method      GridPruning ... 4 (adaptive)
Weight generation scheme         WeightScheme... mBecke (2022)
Basis function cutoff            BFCut       ... 1.0000e-11
Integration weight cutoff        WCut        ... 1.0000e-14
Partially contracted basis set               ... on
Rotationally invariant grid construction     ... off
Angular grids for H and He will be reduced by one unit

Total number of grid points                  ...    96073
Total number of batches                      ...      763
Average number of points per batch           ...      125
Average number of grid points per atom       ...     4003
UseSFitting                                  ... on
Initializing property integral containers    ... done (  0.0 sec)

SHARK setup successfully completed in   3.4 seconds

Maximum memory used throughout the entire STARTUP-calculation: 56.8 MB


           ************************************************************
           *        Program running with 20 parallel MPI-processes    *
           *              working on a common directory               *
           ************************************************************
-------------------------------------------------------------------------------
                                 ORCA GUESS
                   Start orbitals & Density for SCF / CASSCF
-------------------------------------------------------------------------------

------------
SCF SETTINGS
------------
Hamiltonian:
 Density Functional     Method          .... DFT(GTOs)
 Exchange Functional    Exchange        .... TPSS
 Correlation Functional Correlation     .... TPSS
 LDA part of GGA corr.  LDAOpt          .... PW91-LDA
 Gradients option       PostSCFGGA      .... off
 Hybrid DFT is turned on
   Fraction HF Exchange ScalHFX         ....  0.100000
   Scaling of DF-GGA-X  ScalDFX         ....  0.900000
   Scaling of DF-GGA-C  ScalDFC         ....  1.000000
   Scaling of DF-LDA-C  ScalLDAC        ....  1.000000
   Perturbative correction              ....  0.000000
   NL short-range parameter             ....  5.200000
 RI-approximation to the Coulomb term is turned on
   Number of AuxJ basis functions       .... 1176
   RIJ-COSX (HFX calculated with COS-X)).... on


General Settings:
 Integral files         IntName         .... rf_mecn_freq_TP_C6_D_B
 Hartree-Fock type      HFTyp           .... UHF
 Total Charge           Charge          ....   -1
 Multiplicity           Mult            ....    2
 Number of Electrons    NEL             ....  191
 Basis Dimension        Dim             ....  744
 Nuclear Repulsion      ENuc            ....   2616.9632576391 Eh

Convergence Acceleration:
 AO-DIIS                CNVDIIS         .... on
   Start iteration      DIISMaxIt       ....     0
   Startup error        DIISStart       ....  0.200000
   # of expansion vecs  DIISMaxEq       ....     5
   Bias factor          DIISBfac        ....   1.050
   Max. coefficient     DIISMaxC        ....  10.000
 MO-DIIS                CNVKDIIS        .... off
 Trust-Rad. Augm. Hess. CNVTRAH         .... auto
   Auto Start mean grad. ratio tolernc. ....  1.125000
   Auto Start start iteration           ....    50
   Auto Start num. interpolation iter.  ....    10
   Max. Number of Micro iterations      ....    24
   Max. Number of Macro iterations      .... Maxiter - #DIIS iter
   Number of Davidson start vectors     ....     2
   Converg. threshold    (grad. norm)   ....   1.000e-05
   Grad. Scal. Fac. for Micro threshold ....   0.100
   Minimum threshold for Micro iter.    ....   1.000e-02
   NR start threshold (gradient norm)   ....   1.000e-04
   Initial trust radius                 ....   0.400
   Minimum AH scaling param. (alpha)    ....   1.000
   Maximum AH scaling param. (alpha)    .... 1000.000
   Quad. conv. algorithm                .... NR
   White noise on init. David. guess    .... on
   Maximum white noise                  ....   0.010
   Pseudo random numbers                .... off
   Inactive MOs                         .... canonical
   Orbital update algorithm             .... Taylor
   Preconditioner                       .... Diag
   Full preconditioner red. dimension   ....   250
 SOSCF                  CNVSOSCF        .... on
   Start iteration      SOSCFMaxIt      ....   150
   Startup grad/error   SOSCFStart      ....  0.001000
   Hessian update       SOSCFHessUp     .... L-BFGS
 Level Shifting         CNVShift        .... on
   Level shift para.    LevelShift      ....    0.2500
   Turn off err/grad.   ShiftErr        ....    0.0000
 Zerner damping         CNVZerner       .... off
 Static damping         CNVDamp         .... on
   Fraction old density DampFac         ....    0.8500
   Max. Damping (<1)    DampMax         ....    0.9800
   Min. Damping (>=0)   DampMin         ....    0.0000
   Turn off err/grad.   DampErr         ....    0.0300

SCF Procedure:
 Maximum # iterations   MaxIter         ....  1500
 SCF integral mode      SCFMode         .... Direct
   Integral package                     .... SHARK and LIBINT hybrid scheme
 Reset frequency        DirectResetFreq ....    20
 Integral Threshold     Thresh          ....  2.500e-11 Eh
 Primitive CutOff       TCut            ....  2.500e-12 Eh

Convergence Tolerance:
 Convergence Check Mode ConvCheckMode   .... Total+1el-Energy
 Convergence forced     ConvForced      .... 0
 Energy Change          TolE            ....  1.000e-08 Eh
 1-El. energy change                    ....  1.000e-05 Eh
 Orbital Gradient       TolG            ....  1.000e-05
 Orbital Rotation angle TolX            ....  1.000e-05
 DIIS Error             TolErr          ....  5.000e-07

------------------------------
INITIAL GUESS: MODEL POTENTIAL
------------------------------
Loading Hartree-Fock densities                     ... done
Calculating cut-offs                               ... done
Initializing the effective Hamiltonian             ... done
Setting up the integral package (SHARK)            ... done
Starting the Coulomb interaction                   ... done (   0.2 sec)
Making the grid                                    ... done (   0.4 sec)
Mapping shells                                     ... done
Starting the XC term evaluation                    ... done (   0.1 sec)
  promolecular density results
     # of electrons  =    190.000348703
     EX              =   -197.154448233
     EC              =     -6.664820254
     EX+EC           =   -203.819268486
Transforming the Hamiltonian                       ... done (   0.0 sec)
Diagonalizing the Hamiltonian                      ... done (   0.1 sec)
Back transforming the eigenvectors                 ... done (   0.0 sec)
Now organizing SCF variables                       ... done
                      ------------------
                      INITIAL GUESS DONE (   1.1 sec)
                      ------------------
             **** ENERGY FILE WAS UPDATED (rf_mecn_freq_TP_C6_D_B.en.tmp) ****
Finished Guess after   1.7 sec
Maximum memory used throughout the entire GUESS-calculation: 45.5 MB


           ************************************************************
           *        Program running with 20 parallel MPI-processes    *
           *              working on a common directory               *
           ************************************************************

-------------------------------------------------------------------------------------------
                                      ORCA LEAN-SCF
                              memory conserving SCF solver
-------------------------------------------------------------------------------------------

--------------------
CPCM SOLVATION MODEL
--------------------
CPCM parameters:
  Epsilon                                         ...      35.6880
  Refrac                                          ...       1.3442
  Rsolv                                           ...       1.3000
  Surface type                                    ... GAUSSIAN VDW
  Discretization scheme                           ... Constant charge density
    Threshold for H atoms                         ...       5.0000 (charges/Ang^2)
    Threshold for non-H atoms                     ...       5.0000 (charges/Ang^2)
  Epsilon function type                           ...         CPCM
Solvent:                                          ... ACETONITRILE
SMD-CDS solvent descriptors:
  Soln                                            ...       1.3442
  Soln25                                          ...       1.3416
  Sola                                            ...       0.0700
  Solb                                            ...       0.3200
  Solg                                            ...      41.2500
  Solc                                            ...       0.0000
  Solh                                            ...       0.0000
Radii:
  Scheme                                          ... Element-dependent radii
  Radius for C  used is    3.4960 Bohr (=   1.8500 Ang.)
  Radius for O  used is    4.0969 Bohr (=   2.1680 Ang.)
  Radius for F  used is    3.2692 Bohr (=   1.7300 Ang.)
Calculating surface                               ...        done! (  0.0s)
Cavity surface points                             ...         2156
Cavity Volume                                     ...    2124.2399
Cavity Surface-area                               ...    1121.9370
Calculating surface distance matrix               ...        done! (  0.0s)
Performing Cholesky decomposition & store         ...        done! (  0.1s)
Overall time for CPCM initialization              ...                 0.2s

----------------------------------------D-I-I-S--------------------------------------------
Iteration    Energy (Eh)           Delta-E    RMSDP     MaxDP     DIISErr   Damp  Time(sec)
-------------------------------------------------------------------------------------------
               ***  Starting incremental Fock matrix formation  ***
    1    -1853.4888788592088531     0.00e+00  2.49e-04  2.76e-02  1.52e-01  0.850   7.3
Warning: op=0 Small HOMO/LUMO gap (   0.039) - skipping pre-diagonalization
         Will do a full diagonalization
    2    -1853.6274835340327627    -1.39e-01  3.29e-04  5.80e-02  1.04e-01  0.850   5.1
                               ***Turning on AO-DIIS***
    3    -1853.7007360308289208    -7.33e-02  1.75e-04  3.06e-02  6.15e-02  0.850   4.5
    4    -1853.7443165468639563    -4.36e-02  9.63e-05  1.33e-02  4.53e-02  0.850   4.2
    5    -1853.7752495705371985    -3.09e-02  5.84e-05  4.62e-03  3.73e-02  0.850   4.1
    6    -1853.7997570889874623    -2.45e-02  4.24e-05  2.39e-03  3.21e-02  0.850   4.3
    7    -1853.8201913261646041    -2.04e-02  3.59e-05  2.13e-03  2.78e-02  0.850   4.2
    8    -1853.8375565488795473    -1.74e-02  2.11e-04  1.24e-02  2.35e-02  0.000   4.1
    9    -1853.9286664897263108    -9.11e-02  2.49e-05  2.40e-03  3.55e-03  0.000   4.5
   10    -1853.9288721578122932    -2.06e-04  1.26e-05  1.75e-03  1.54e-03  0.000   3.9
                              *** Initializing SOSCF ***
---------------------------------------S-O-S-C-F--------------------------------------
Iteration    Energy (Eh)           Delta-E    RMSDP     MaxDP     MaxGrad    Time(sec)
--------------------------------------------------------------------------------------
   11    -1853.9289147671615865    -4.26e-05  5.51e-06  7.18e-04  3.80e-04     4.2
               *** Restarting incremental Fock matrix formation ***
   12    -1853.9289208548716488    -6.09e-06  4.85e-06  5.18e-04  2.26e-04     7.1
   13    -1853.9289216299121108    -7.75e-07  2.91e-06  3.35e-04  2.00e-04     4.8
   14    -1853.9289230581662196    -1.43e-06  1.38e-06  1.69e-04  4.23e-05     4.3
   15    -1853.9289230637414221    -5.58e-09  7.67e-07  1.21e-04  2.08e-05     4.0
                 **** Energy Check signals convergence ****

               *****************************************************
               *                     SUCCESS                       *
               *           SCF CONVERGED AFTER  15 CYCLES          *
               *****************************************************

Recomputing exchange energy using gridx3       ... done (    8.234 sec)
Old exchange energy                            :    -19.898668968 Eh
New exchange energy                            :    -19.898652792 Eh
Exchange energy change after final integration :      0.000016176 Eh
Total energy after final integration           :  -1853.928906888 Eh

SMD CDS free energy correction energy :                 3.27224     Kcal/mol
Total Energy after SMD CDS correction =             -1853.923692237 Eh
             **** ENERGY FILE WAS UPDATED (rf_mecn_freq_TP_C6_D_B.en.tmp) ****

----------------
TOTAL SCF ENERGY
----------------

Total Energy       :      -1853.92369223692481 Eh          -50447.82838 eV

Components:
Nuclear Repulsion  :       2616.96325763910500 Eh           71211.19055 eV
Electronic Energy  :      -4470.80751320442141 Eh         -121656.85735 eV
One Electron Energy:      -7808.89036964091429 Eh         -212490.70978 eV
Two Electron Energy:       3338.08285643649288 Eh           90833.85243 eV
CPCM Dielectric    :         -0.08466749842511 Eh              -2.30392 eV
SMD CDS (Gcds)     :          0.00521465118365 Eh               0.14190 eV

Virial components:
Potential Energy   :      -3701.36480617493362 Eh         -100719.25684 eV
Kinetic Energy     :       1847.44111393800858 Eh           50271.42846 eV
Virial Ratio       :          2.00350894989291

DFT components:
N(Alpha)           :       95.999992603884 electrons
N(Beta)            :       94.999988898062 electrons
N(Total)           :      190.999981501947 electrons
E(X)               :     -180.842347175322 Eh       
E(C)               :       -6.712272687793 Eh       
E(XC)              :     -187.554619863116 Eh       

CPCM Solvation Model Properties:
Surface-charge          :          0.99015384664368
Corrected charge        :          1.00000000000000
Outlying charge corr.   :          0.00000531701996 Eh               0.00014 eV
Free-energy (cav+disp)  :          0.00521465118365 Eh               0.14190 eV

---------------
SCF CONVERGENCE
---------------

  Last Energy change         ...    5.5752e-09  Tolerance :   1.0000e-08
  Last MAX-Density change    ...    1.2092e-04  Tolerance :   1.0000e-07
  Last RMS-Density change    ...    7.6737e-07  Tolerance :   5.0000e-09
  Last DIIS Error            ...    3.7967e-04  Tolerance :   5.0000e-07
  Last Orbital Gradient      ...    2.0788e-05  Tolerance :   1.0000e-05
  Last Orbital Rotation      ...    9.4913e-05  Tolerance :   1.0000e-05


----------------------
UHF SPIN CONTAMINATION
----------------------

Warning: in a DFT calculation there is little theoretical justification to 
         calculate <S**2> as in Hartree-Fock theory. We will do it anyways
         but you should keep in mind that the values have only limited relevance

Expectation value of <S**2>     :     0.755392
Ideal value S*(S+1) for S=0.5   :     0.750000
Deviation                       :     0.005392

----------------
ORBITAL ENERGIES
----------------
                 SPIN UP ORBITALS
  NO   OCC          E(Eh)            E(eV) 
   0   1.0000     -24.671678      -671.3505 
   1   1.0000     -24.657562      -670.9664 
   2   1.0000     -24.656850      -670.9470 
   3   1.0000     -24.656770      -670.9448 
   4   1.0000     -24.654473      -670.8823 
   5   1.0000     -24.649220      -670.7394 
   6   1.0000     -24.648962      -670.7324 
   7   1.0000     -24.648678      -670.7246 
   8   1.0000     -24.648565      -670.7216 
   9   1.0000     -24.643574      -670.5857 
  10   1.0000     -24.638435      -670.4459 
  11   1.0000     -24.637500      -670.4205 
  12   1.0000     -24.614122      -669.7843 
  13   1.0000     -24.614016      -669.7814 
  14   1.0000     -18.991755      -516.7919 
  15   1.0000     -18.991585      -516.7873 
  16   1.0000     -10.389947      -282.7248 
  17   1.0000     -10.340227      -281.3719 
  18   1.0000     -10.336417      -281.2682 
  19   1.0000     -10.330368      -281.1036 
  20   1.0000     -10.316921      -280.7377 
  21   1.0000     -10.281120      -279.7635 
  22   1.0000     -10.265662      -279.3429 
  23   1.0000     -10.196348      -277.4567 
  24   1.0000      -1.315771       -35.8040 
  25   1.0000      -1.285703       -34.9858 
  26   1.0000      -1.275066       -34.6963 
  27   1.0000      -1.264017       -34.3956 
  28   1.0000      -1.263148       -34.3720 
  29   1.0000      -1.258275       -34.2394 
  30   1.0000      -1.231461       -33.5098 
  31   1.0000      -1.229539       -33.4574 
  32   1.0000      -1.227367       -33.3984 
  33   1.0000      -1.219975       -33.1972 
  34   1.0000      -1.215371       -33.0719 
  35   1.0000      -1.207990       -32.8711 
  36   1.0000      -1.202796       -32.7297 
  37   1.0000      -1.175441       -31.9854 
  38   1.0000      -0.984759       -26.7966 
  39   1.0000      -0.907963       -24.7069 
  40   1.0000      -0.832018       -22.6404 
  41   1.0000      -0.798938       -21.7402 
  42   1.0000      -0.768816       -20.9205 
  43   1.0000      -0.728972       -19.8363 
  44   1.0000      -0.688724       -18.7411 
  45   1.0000      -0.652535       -17.7564 
  46   1.0000      -0.638850       -17.3840 
  47   1.0000      -0.612262       -16.6605 
  48   1.0000      -0.606930       -16.5154 
  49   1.0000      -0.604484       -16.4488 
  50   1.0000      -0.596635       -16.2353 
  51   1.0000      -0.591452       -16.0942 
  52   1.0000      -0.588328       -16.0092 
  53   1.0000      -0.573944       -15.6178 
  54   1.0000      -0.569831       -15.5059 
  55   1.0000      -0.563860       -15.3434 
  56   1.0000      -0.553722       -15.0675 
  57   1.0000      -0.550813       -14.9884 
  58   1.0000      -0.544657       -14.8209 
  59   1.0000      -0.537021       -14.6131 
  60   1.0000      -0.521395       -14.1879 
  61   1.0000      -0.505397       -13.7526 
  62   1.0000      -0.476988       -12.9795 
  63   1.0000      -0.474022       -12.8988 
  64   1.0000      -0.468193       -12.7402 
  65   1.0000      -0.466196       -12.6858 
  66   1.0000      -0.466020       -12.6811 
  67   1.0000      -0.455086       -12.3835 
  68   1.0000      -0.449016       -12.2184 
  69   1.0000      -0.446401       -12.1472 
  70   1.0000      -0.446124       -12.1396 
  71   1.0000      -0.441745       -12.0205 
  72   1.0000      -0.435142       -11.8408 
  73   1.0000      -0.434319       -11.8184 
  74   1.0000      -0.430652       -11.7186 
  75   1.0000      -0.429689       -11.6924 
  76   1.0000      -0.424237       -11.5441 
  77   1.0000      -0.423199       -11.5158 
  78   1.0000      -0.415710       -11.3120 
  79   1.0000      -0.411426       -11.1955 
  80   1.0000      -0.409810       -11.1515 
  81   1.0000      -0.408462       -11.1148 
  82   1.0000      -0.405680       -11.0391 
  83   1.0000      -0.401922       -10.9369 
  84   1.0000      -0.398693       -10.8490 
  85   1.0000      -0.387288       -10.5386 
  86   1.0000      -0.382033       -10.3956 
  87   1.0000      -0.373788       -10.1713 
  88   1.0000      -0.372385       -10.1331 
  89   1.0000      -0.356619        -9.7041 
  90   1.0000      -0.354836        -9.6556 
  91   1.0000      -0.321439        -8.7468 
  92   1.0000      -0.258602        -7.0369 
  93   1.0000      -0.231616        -6.3026 
  94   1.0000      -0.217403        -5.9158 
  95   1.0000      -0.216863        -5.9012 
  96   0.0000      -0.021245        -0.5781 
  97   0.0000       0.007759         0.2111 
  98   0.0000       0.023540         0.6406 
  99   0.0000       0.040438         1.1004 
 100   0.0000       0.060233         1.6390 
 101   0.0000       0.076219         2.0740 
 102   0.0000       0.083951         2.2844 
 103   0.0000       0.104742         2.8502 
 104   0.0000       0.113433         3.0867 
 105   0.0000       0.121041         3.2937 
 106   0.0000       0.130316         3.5461 

                 SPIN DOWN ORBITALS
  NO   OCC          E(Eh)            E(eV) 
   0   1.0000     -24.667266      -671.2304 
   1   1.0000     -24.657515      -670.9651 
   2   1.0000     -24.656794      -670.9455 
   3   1.0000     -24.656522      -670.9381 
   4   1.0000     -24.654342      -670.8787 
   5   1.0000     -24.648899      -670.7306 
   6   1.0000     -24.648603      -670.7226 
   7   1.0000     -24.648214      -670.7120 
   8   1.0000     -24.648019      -670.7067 
   9   1.0000     -24.641903      -670.5403 
  10   1.0000     -24.638432      -670.4458 
  11   1.0000     -24.637500      -670.4205 
  12   1.0000     -24.614122      -669.7843 
  13   1.0000     -24.614015      -669.7814 
  14   1.0000     -18.991754      -516.7919 
  15   1.0000     -18.991585      -516.7873 
  16   1.0000     -10.389353      -282.7087 
  17   1.0000     -10.341088      -281.3953 
  18   1.0000     -10.337137      -281.2878 
  19   1.0000     -10.330332      -281.1026 
  20   1.0000     -10.316935      -280.7381 
  21   1.0000     -10.281122      -279.7636 
  22   1.0000     -10.249802      -278.9113 
  23   1.0000     -10.196348      -277.4567 
  24   1.0000      -1.315389       -35.7936 
  25   1.0000      -1.284432       -34.9512 
  26   1.0000      -1.273303       -34.6483 
  27   1.0000      -1.262509       -34.3546 
  28   1.0000      -1.259796       -34.2808 
  29   1.0000      -1.254608       -34.1396 
  30   1.0000      -1.231451       -33.5095 
  31   1.0000      -1.229227       -33.4490 
  32   1.0000      -1.227003       -33.3885 
  33   1.0000      -1.219430       -33.1824 
  34   1.0000      -1.214040       -33.0357 
  35   1.0000      -1.205856       -32.8130 
  36   1.0000      -1.202773       -32.7291 
  37   1.0000      -1.175439       -31.9853 
  38   1.0000      -0.984758       -26.7966 
  39   1.0000      -0.907962       -24.7069 
  40   1.0000      -0.818392       -22.2696 
  41   1.0000      -0.797212       -21.6932 
  42   1.0000      -0.766168       -20.8485 
  43   1.0000      -0.722741       -19.6668 
  44   1.0000      -0.687436       -18.7061 
  45   1.0000      -0.648948       -17.6588 
  46   1.0000      -0.637204       -17.3392 
  47   1.0000      -0.608293       -16.5525 
  48   1.0000      -0.605672       -16.4812 
  49   1.0000      -0.602473       -16.3941 
  50   1.0000      -0.595833       -16.2134 
  51   1.0000      -0.590350       -16.0643 
  52   1.0000      -0.586938       -15.9714 
  53   1.0000      -0.572283       -15.5726 
  54   1.0000      -0.567672       -15.4471 
  55   1.0000      -0.561708       -15.2849 
  56   1.0000      -0.551468       -15.0062 
  57   1.0000      -0.549607       -14.9556 
  58   1.0000      -0.543547       -14.7907 
  59   1.0000      -0.536427       -14.5969 
  60   1.0000      -0.521379       -14.1875 
  61   1.0000      -0.477358       -12.9896 
  62   1.0000      -0.475119       -12.9287 
  63   1.0000      -0.473047       -12.8723 
  64   1.0000      -0.467864       -12.7312 
  65   1.0000      -0.465453       -12.6656 
  66   1.0000      -0.464918       -12.6510 
  67   1.0000      -0.454350       -12.3635 
  68   1.0000      -0.448228       -12.1969 
  69   1.0000      -0.445513       -12.1230 
  70   1.0000      -0.444186       -12.0869 
  71   1.0000      -0.439887       -11.9699 
  72   1.0000      -0.433843       -11.8055 
  73   1.0000      -0.432450       -11.7676 
  74   1.0000      -0.429926       -11.6989 
  75   1.0000      -0.427912       -11.6441 
  76   1.0000      -0.423259       -11.5175 
  77   1.0000      -0.421983       -11.4827 
  78   1.0000      -0.414991       -11.2925 
  79   1.0000      -0.409659       -11.1474 
  80   1.0000      -0.409408       -11.1406 
  81   1.0000      -0.407558       -11.0902 
  82   1.0000      -0.405064       -11.0223 
  83   1.0000      -0.401687       -10.9305 
  84   1.0000      -0.398005       -10.8303 
  85   1.0000      -0.386805       -10.5255 
  86   1.0000      -0.382026       -10.3955 
  87   1.0000      -0.372948       -10.1484 
  88   1.0000      -0.371376       -10.1056 
  89   1.0000      -0.356435        -9.6991 
  90   1.0000      -0.353054        -9.6071 
  91   1.0000      -0.320533        -8.7221 
  92   1.0000      -0.231616        -6.3026 
  93   1.0000      -0.217396        -5.9157 
  94   1.0000      -0.216856        -5.9010 
  95   0.0000      -0.132275        -3.5994 
  96   0.0000      -0.016966        -0.4617 
  97   0.0000       0.009627         0.2620 
  98   0.0000       0.027025         0.7354 
  99   0.0000       0.044096         1.1999 
 100   0.0000       0.070291         1.9127 
 101   0.0000       0.086190         2.3453 
 102   0.0000       0.088598         2.4109 
 103   0.0000       0.111883         3.0445 
 104   0.0000       0.113978         3.1015 
 105   0.0000       0.127732         3.4758 
*Only the first 10 virtual orbitals were printed.

                    ********************************
                    * MULLIKEN POPULATION ANALYSIS *
                    ********************************

--------------------------------------------
MULLIKEN ATOMIC CHARGES AND SPIN POPULATIONS
--------------------------------------------
   0 C :    0.190999   -0.000062
   1 O :   -0.506739    0.000033
   2 O :   -0.502395   -0.000002
   3 C :    0.318035   -0.000100
   4 C :    0.273542    0.000044
   5 C :    0.295267   -0.008846
   6 C :    0.331620    0.001018
   7 C :    0.118878    0.859361
   8 C :    0.300341   -0.024234
   9 C :    0.414905    0.019164
  10 F :   -0.196201    0.000006
  11 F :   -0.199116    0.000016
  12 F :   -0.165580    0.000019
  13 F :   -0.172336    0.000008
  14 F :   -0.160526    0.001047
  15 F :   -0.159135    0.001333
  16 F :   -0.164390    0.031563
  17 F :   -0.160343    0.008645
  18 F :   -0.129377    0.083922
  19 F :   -0.151336    0.001581
  20 F :   -0.155492    0.019444
  21 F :   -0.141910    0.000741
  22 F :   -0.136560    0.004743
  23 F :   -0.142153    0.000555
Sum of atomic charges         :   -1.0000000
Sum of atomic spin populations:    1.0000000

-----------------------------------------------------
MULLIKEN REDUCED ORBITAL CHARGES AND SPIN POPULATIONS
-----------------------------------------------------
CHARGE
  0 C s       :     3.047691  s :     3.047691
      pz      :     0.841948  p :     2.496645
      px      :     0.870833
      py      :     0.783864
      dz2     :     0.040985  d :     0.242000
      dxz     :     0.034640
      dyz     :     0.054935
      dx2y2   :     0.053568
      dxy     :     0.057873
      f0      :     0.003236  f :     0.022663
      f+1     :     0.001537
      f-1     :     0.003328
      f+2     :     0.004209
      f-2     :     0.003422
      f+3     :     0.002739
      f-3     :     0.004194

  1 O s       :     3.807562  s :     3.807562
      pz      :     1.474006  p :     4.671226
      px      :     1.653346
      py      :     1.543874
      dz2     :     0.006482  d :     0.026304
      dxz     :     0.003581
      dyz     :     0.008042
      dx2y2   :     0.003766
      dxy     :     0.004434
      f0      :     0.000221  f :     0.001647
      f+1     :     0.000070
      f-1     :     0.000440
      f+2     :     0.000319
      f-2     :     0.000308
      f+3     :     0.000160
      f-3     :     0.000129

  2 O s       :     3.804021  s :     3.804021
      pz      :     1.668346  p :     4.670248
      px      :     1.623370
      py      :     1.378532
      dz2     :     0.003119  d :     0.026462
      dxz     :     0.001581
      dyz     :     0.006361
      dx2y2   :     0.008113
      dxy     :     0.007289
      f0      :     0.000184  f :     0.001664
      f+1     :     0.000057
      f-1     :     0.000259
      f+2     :     0.000181
      f-2     :     0.000192
      f+3     :     0.000359
      f-3     :     0.000434

  3 C s       :     3.106200  s :     3.106200
      pz      :     0.699693  p :     2.286419
      px      :     0.943994
      py      :     0.642732
      dz2     :     0.049580  d :     0.262810
      dxz     :     0.049225
      dyz     :     0.067732
      dx2y2   :     0.042977
      dxy     :     0.053296
      f0      :     0.005515  f :     0.026536
      f+1     :     0.003971
      f-1     :     0.004391
      f+2     :     0.003558
      f-2     :     0.001985
      f+3     :     0.003922
      f-3     :     0.003193

  4 C s       :     3.132258  s :     3.132258
      pz      :     0.629156  p :     2.274580
      px      :     0.955021
      py      :     0.690402
      dz2     :     0.054373  d :     0.291623
      dxz     :     0.062210
      dyz     :     0.072693
      dx2y2   :     0.040317
      dxy     :     0.062031
      f0      :     0.003943  f :     0.027996
      f+1     :     0.004943
      f-1     :     0.007665
      f+2     :     0.002659
      f-2     :     0.001935
      f+3     :     0.004308
      f-3     :     0.002542

  5 C s       :     3.146266  s :     3.146266
      pz      :     0.616056  p :     2.231332
      px      :     0.896724
      py      :     0.718552
      dz2     :     0.072084  d :     0.298848
      dxz     :     0.062316
      dyz     :     0.064189
      dx2y2   :     0.040993
      dxy     :     0.059265
      f0      :     0.004467  f :     0.028287
      f+1     :     0.004247
      f-1     :     0.006982
      f+2     :     0.003474
      f-2     :     0.003520
      f+3     :     0.002851
      f-3     :     0.002746

  6 C s       :     3.073119  s :     3.073119
      pz      :     0.611185  p :     2.262085
      px      :     0.915285
      py      :     0.735615
      dz2     :     0.073875  d :     0.305240
      dxz     :     0.069547
      dyz     :     0.059867
      dx2y2   :     0.038532
      dxy     :     0.063419
      f0      :     0.005569  f :     0.027935
      f+1     :     0.003835
      f-1     :     0.005161
      f+2     :     0.004120
      f-2     :     0.004743
      f+3     :     0.002355
      f-3     :     0.002152

  7 C s       :     3.221290  s :     3.221290
      pz      :     0.901760  p :     2.479399
      px      :     0.883674
      py      :     0.693964
      dz2     :     0.027439  d :     0.162587
      dxz     :     0.024784
      dyz     :     0.021372
      dx2y2   :     0.030964
      dxy     :     0.058028
      f0      :     0.001398  f :     0.017847
      f+1     :     0.001250
      f-1     :     0.004285
      f+2     :     0.001992
      f-2     :     0.002847
      f+3     :     0.003794
      f-3     :     0.002282

  8 C s       :     3.067854  s :     3.067854
      pz      :     0.724169  p :     2.302730
      px      :     0.879377
      py      :     0.699184
      dz2     :     0.057095  d :     0.301208
      dxz     :     0.059709
      dyz     :     0.071418
      dx2y2   :     0.047259
      dxy     :     0.065728
      f0      :     0.004739  f :     0.027867
      f+1     :     0.002587
      f-1     :     0.005133
      f+2     :     0.004384
      f-2     :     0.003945
      f+3     :     0.004374
      f-3     :     0.002706

  9 C s       :     3.023512  s :     3.023512
      pz      :     0.755886  p :     2.162467
      px      :     0.710395
      py      :     0.696186
      dz2     :     0.062155  d :     0.359116
      dxz     :     0.072808
      dyz     :     0.075900
      dx2y2   :     0.070233
      dxy     :     0.078021
      f0      :     0.007014  f :     0.040000
      f+1     :     0.003337
      f-1     :     0.006118
      f+2     :     0.005321
      f-2     :     0.005325
      f+3     :     0.008682
      f-3     :     0.004202

 10 F s       :     3.912598  s :     3.912598
      pz      :     1.899677  p :     5.268304
      px      :     1.890785
      py      :     1.477842
      dz2     :     0.002087  d :     0.014644
      dxz     :     0.000282
      dyz     :     0.002847
      dx2y2   :     0.005482
      dxy     :     0.003946
      f0      :     0.000053  f :     0.000655
      f+1     :     0.000017
      f-1     :     0.000132
      f+2     :     0.000077
      f-2     :     0.000017
      f+3     :     0.000170
      f-3     :     0.000190

 11 F s       :     3.912339  s :     3.912339
      pz      :     1.498180  p :     5.271624
      px      :     1.891723
      py      :     1.881722
      dz2     :     0.006556  d :     0.014497
      dxz     :     0.003888
      dyz     :     0.003082
      dx2y2   :     0.000494
      dxy     :     0.000478
      f0      :     0.000245  f :     0.000655
      f+1     :     0.000175
      f-1     :     0.000152
      f+2     :     0.000038
      f-2     :     0.000041
      f+3     :     0.000003
      f-3     :     0.000002

 12 F s       :     3.915222  s :     3.915222
      pz      :     1.847175  p :     5.234024
      px      :     1.905053
      py      :     1.481796
      dz2     :     0.002015  d :     0.015633
      dxz     :     0.000462
      dyz     :     0.004192
      dx2y2   :     0.005451
      dxy     :     0.003515
      f0      :     0.000073  f :     0.000700
      f+1     :     0.000006
      f-1     :     0.000117
      f+2     :     0.000155
      f-2     :     0.000036
      f+3     :     0.000131
      f-3     :     0.000181

 13 F s       :     3.917164  s :     3.917164
      pz      :     1.444350  p :     5.239157
      px      :     1.904826
      py      :     1.889981
      dz2     :     0.008154  d :     0.015330
      dxz     :     0.003723
      dyz     :     0.003055
      dx2y2   :     0.000209
      dxy     :     0.000189
      f0      :     0.000358  f :     0.000684
      f+1     :     0.000166
      f-1     :     0.000143
      f+2     :     0.000007
      f-2     :     0.000008
      f+3     :     0.000001
      f-3     :     0.000001

 14 F s       :     3.917693  s :     3.917693
      pz      :     1.761476  p :     5.226425
      px      :     1.877825
      py      :     1.587125
      dz2     :     0.002150  d :     0.015707
      dxz     :     0.001423
      dyz     :     0.005412
      dx2y2   :     0.003493
      dxy     :     0.003229
      f0      :     0.000078  f :     0.000700
      f+1     :     0.000017
      f-1     :     0.000134
      f+2     :     0.000169
      f-2     :     0.000119
      f+3     :     0.000097
      f-3     :     0.000087

 15 F s       :     3.916881  s :     3.916881
      pz      :     1.486593  p :     5.225826
      px      :     1.891234
      py      :     1.848000
      dz2     :     0.006887  d :     0.015727
      dxz     :     0.003655
      dyz     :     0.004063
      dx2y2   :     0.000488
      dxy     :     0.000634
      f0      :     0.000259  f :     0.000700
      f+1     :     0.000148
      f-1     :     0.000199
      f+2     :     0.000037
      f-2     :     0.000052
      f+3     :     0.000003
      f-3     :     0.000003

 16 F s       :     3.917425  s :     3.917425
      pz      :     1.684525  p :     5.231394
      px      :     1.896719
      py      :     1.650149
      dz2     :     0.002663  d :     0.014909
      dxz     :     0.001699
      dyz     :     0.005988
      dx2y2   :     0.002415
      dxy     :     0.002144
      f0      :     0.000075  f :     0.000663
      f+1     :     0.000024
      f-1     :     0.000192
      f+2     :     0.000171
      f-2     :     0.000106
      f+3     :     0.000047
      f-3     :     0.000048

 17 F s       :     3.919290  s :     3.919290
      pz      :     1.529174  p :     5.224970
      px      :     1.905728
      py      :     1.790068
      dz2     :     0.005506  d :     0.015400
      dxz     :     0.002758
      dyz     :     0.005197
      dx2y2   :     0.000896
      dxy     :     0.001042
      f0      :     0.000175  f :     0.000683
      f+1     :     0.000081
      f-1     :     0.000260
      f+2     :     0.000078
      f-2     :     0.000073
      f+3     :     0.000009
      f-3     :     0.000007

 18 F s       :     3.920735  s :     3.920735
      pz      :     1.726347  p :     5.190431
      px      :     1.905940
      py      :     1.558144
      dz2     :     0.003149  d :     0.017461
      dxz     :     0.001179
      dyz     :     0.006015
      dx2y2   :     0.004322
      dxy     :     0.002796
      f0      :     0.000075  f :     0.000750
      f+1     :     0.000003
      f-1     :     0.000186
      f+2     :     0.000205
      f-2     :     0.000085
      f+3     :     0.000080
      f-3     :     0.000115

 19 F s       :     3.919013  s :     3.919013
      pz      :     1.853567  p :     5.215889
      px      :     1.896708
      py      :     1.465614
      dz2     :     0.001998  d :     0.015732
      dxz     :     0.000449
      dyz     :     0.004292
      dx2y2   :     0.005635
      dxy     :     0.003358
      f0      :     0.000075  f :     0.000702
      f+1     :     0.000006
      f-1     :     0.000118
      f+2     :     0.000151
      f-2     :     0.000036
      f+3     :     0.000129
      f-3     :     0.000187

 20 F s       :     3.916578  s :     3.916578
      pz      :     1.561325  p :     5.223159
      px      :     1.774206
      py      :     1.887628
      dz2     :     0.005043  d :     0.015081
      dxz     :     0.005595
      dyz     :     0.002289
      dx2y2   :     0.001297
      dxy     :     0.000857
      f0      :     0.000138  f :     0.000675
      f+1     :     0.000262
      f-1     :     0.000067
      f+2     :     0.000111
      f-2     :     0.000072
      f+3     :     0.000015
      f-3     :     0.000010

 21 F s       :     3.912967  s :     3.912967
      pz      :     1.856472  p :     5.212157
      px      :     1.881455
      py      :     1.474230
      dz2     :     0.002143  d :     0.016031
      dxz     :     0.000434
      dyz     :     0.004364
      dx2y2   :     0.005708
      dxy     :     0.003383
      f0      :     0.000080  f :     0.000755
      f+1     :     0.000009
      f-1     :     0.000128
      f+2     :     0.000152
      f-2     :     0.000043
      f+3     :     0.000145
      f-3     :     0.000198

 22 F s       :     3.911380  s :     3.911380
      pz      :     1.880771  p :     5.208377
      px      :     1.518632
      py      :     1.808974
      dz2     :     0.002278  d :     0.016044
      dxz     :     0.003080
      dyz     :     0.000711
      dx2y2   :     0.004702
      dxy     :     0.005274
      f0      :     0.000066  f :     0.000759
      f+1     :     0.000125
      f-1     :     0.000036
      f+2     :     0.000058
      f-2     :     0.000068
      f+3     :     0.000158
      f-3     :     0.000247

 23 F s       :     3.913117  s :     3.913117
      pz      :     1.533175  p :     5.212286
      px      :     1.792706
      py      :     1.886404
      dz2     :     0.005821  d :     0.015997
      dxz     :     0.005679
      dyz     :     0.002677
      dx2y2   :     0.001027
      dxy     :     0.000793
      f0      :     0.000178  f :     0.000754
      f+1     :     0.000288
      f-1     :     0.000091
      f+2     :     0.000104
      f-2     :     0.000072
      f+3     :     0.000011
      f-3     :     0.000010


SPIN
  0 C s       :    -0.000088  s :    -0.000088
      pz      :     0.000016  p :     0.000023
      px      :     0.000011
      py      :    -0.000004
      dz2     :     0.000000  d :     0.000002
      dxz     :    -0.000001
      dyz     :     0.000002
      dx2y2   :     0.000001
      dxy     :    -0.000001
      f0      :     0.000000  f :     0.000000
      f+1     :    -0.000000
      f-1     :     0.000000
      f+2     :     0.000000
      f-2     :     0.000000
      f+3     :    -0.000000
      f-3     :     0.000000

  1 O s       :     0.000008  s :     0.000008
      pz      :    -0.000010  p :     0.000025
      px      :     0.000025
      py      :     0.000010
      dz2     :     0.000000  d :     0.000000
      dxz     :     0.000000
      dyz     :    -0.000000
      dx2y2   :    -0.000000
      dxy     :    -0.000000
      f0      :    -0.000000  f :    -0.000000
      f+1     :    -0.000000
      f-1     :    -0.000000
      f+2     :    -0.000000
      f-2     :    -0.000000
      f+3     :    -0.000000
      f-3     :    -0.000000

  2 O s       :     0.000006  s :     0.000006
      pz      :    -0.000017  p :    -0.000008
      px      :     0.000007
      py      :     0.000002
      dz2     :     0.000000  d :     0.000000
      dxz     :     0.000000
      dyz     :     0.000000
      dx2y2   :    -0.000000
      dxy     :    -0.000000
      f0      :     0.000000  f :     0.000000
      f+1     :     0.000000
      f-1     :     0.000000
      f+2     :     0.000000
      f-2     :     0.000000
      f+3     :    -0.000000
      f-3     :    -0.000000

  3 C s       :    -0.000037  s :    -0.000037
      pz      :     0.000017  p :    -0.000051
      px      :    -0.000058
      py      :    -0.000010
      dz2     :    -0.000000  d :    -0.000013
      dxz     :     0.000001
      dyz     :    -0.000001
      dx2y2   :    -0.000015
      dxy     :     0.000002
      f0      :    -0.000000  f :     0.000000
      f+1     :    -0.000000
      f-1     :     0.000000
      f+2     :    -0.000000
      f-2     :    -0.000000
      f+3     :     0.000000
      f-3     :     0.000000

  4 C s       :    -0.000164  s :    -0.000164
      pz      :     0.000323  p :     0.000289
      px      :    -0.000272
      py      :     0.000238
      dz2     :    -0.000003  d :    -0.000082
      dxz     :    -0.000003
      dyz     :    -0.000005
      dx2y2   :    -0.000014
      dxy     :    -0.000058
      f0      :     0.000000  f :    -0.000000
      f+1     :    -0.000000
      f-1     :     0.000000
      f+2     :     0.000001
      f-2     :    -0.000002
      f+3     :     0.000002
      f-3     :    -0.000000

  5 C s       :    -0.003951  s :    -0.003951
      pz      :    -0.002379  p :    -0.004532
      px      :    -0.002832
      py      :     0.000679
      dz2     :    -0.000129  d :    -0.000403
      dxz     :    -0.000077
      dyz     :     0.000009
      dx2y2   :    -0.000271
      dxy     :     0.000064
      f0      :     0.000017  f :     0.000040
      f+1     :    -0.000001
      f-1     :    -0.000001
      f+2     :     0.000007
      f-2     :     0.000010
      f+3     :     0.000001
      f-3     :     0.000007

  6 C s       :    -0.003266  s :    -0.003266
      pz      :     0.014559  p :    -0.010656
      px      :    -0.025584
      py      :     0.000369
      dz2     :     0.000141  d :     0.013354
      dxz     :     0.005021
      dyz     :     0.005071
      dx2y2   :     0.001873
      dxy     :     0.001248
      f0      :     0.000443  f :     0.001586
      f+1     :     0.000085
      f-1     :     0.000106
      f+2     :     0.000372
      f-2     :     0.000352
      f+3     :     0.000197
      f-3     :     0.000032

  7 C s       :     0.060264  s :     0.060264
      pz      :     0.565311  p :     0.798159
      px      :     0.037187
      py      :     0.195661
      dz2     :     0.000251  d :     0.003126
      dxz     :     0.001728
      dyz     :     0.000337
      dx2y2   :     0.000133
      dxy     :     0.000677
      f0      :    -0.000347  f :    -0.002189
      f+1     :    -0.000473
      f-1     :    -0.000677
      f+2     :    -0.000293
      f-2     :    -0.000214
      f+3     :    -0.000023
      f-3     :    -0.000162

  8 C s       :    -0.011808  s :    -0.011808
      pz      :    -0.001686  p :    -0.033571
      px      :    -0.027317
      py      :    -0.004568
      dz2     :    -0.000398  d :     0.019972
      dxz     :     0.017205
      dyz     :    -0.000137
      dx2y2   :     0.001038
      dxy     :     0.002263
      f0      :     0.000367  f :     0.001173
      f+1     :     0.000062
      f-1     :     0.000000
      f+2     :     0.000258
      f-2     :     0.000244
      f+3     :     0.000172
      f-3     :     0.000070

  9 C s       :     0.004668  s :     0.004668
      pz      :     0.008051  p :     0.012645
      px      :     0.000027
      py      :     0.004567
      dz2     :     0.000321  d :     0.001802
      dxz     :     0.000194
      dyz     :     0.000168
      dx2y2   :     0.000913
      dxy     :     0.000205
      f0      :     0.000009  f :     0.000049
      f+1     :    -0.000001
      f-1     :     0.000009
      f+2     :     0.000002
      f-2     :     0.000013
      f+3     :     0.000021
      f-3     :    -0.000005

 10 F s       :     0.000002  s :     0.000002
      pz      :     0.000004  p :     0.000003
      px      :    -0.000005
      py      :     0.000005
      dz2     :     0.000000  d :     0.000000
      dxz     :     0.000000
      dyz     :     0.000000
      dx2y2   :     0.000000
      dxy     :    -0.000000
      f0      :     0.000000  f :     0.000000
      f+1     :    -0.000000
      f-1     :     0.000000
      f+2     :     0.000000
      f-2     :    -0.000000
      f+3     :     0.000000
      f-3     :    -0.000000

 11 F s       :    -0.000002  s :    -0.000002
      pz      :     0.000002  p :     0.000018
      px      :     0.000017
      py      :    -0.000001
      dz2     :     0.000000  d :    -0.000000
      dxz     :    -0.000001
      dyz     :    -0.000000
      dx2y2   :    -0.000000
      dxy     :     0.000000
      f0      :    -0.000000  f :    -0.000000
      f+1     :    -0.000000
      f-1     :    -0.000000
      f+2     :    -0.000000
      f-2     :    -0.000000
      f+3     :     0.000000
      f-3     :     0.000000

 12 F s       :    -0.000036  s :    -0.000036
      pz      :     0.000001  p :     0.000053
      px      :     0.000031
      py      :     0.000021
      dz2     :    -0.000000  d :     0.000002
      dxz     :     0.000001
      dyz     :     0.000000
      dx2y2   :     0.000000
      dxy     :     0.000000
      f0      :    -0.000000  f :    -0.000000
      f+1     :     0.000000
      f-1     :    -0.000000
      f+2     :     0.000000
      f-2     :    -0.000000
      f+3     :    -0.000000
      f-3     :    -0.000000

 13 F s       :    -0.000004  s :    -0.000004
      pz      :     0.000006  p :     0.000013
      px      :     0.000004
      py      :     0.000003
      dz2     :     0.000000  d :    -0.000001
      dxz     :    -0.000001
      dyz     :     0.000000
      dx2y2   :     0.000000
      dxy     :    -0.000000
      f0      :     0.000000  f :    -0.000000
      f+1     :    -0.000000
      f-1     :    -0.000000
      f+2     :     0.000000
      f-2     :     0.000000
      f+3     :     0.000000
      f-3     :    -0.000000

 14 F s       :     0.000440  s :     0.000440
      pz      :    -0.000055  p :     0.000567
      px      :     0.000220
      py      :     0.000401
      dz2     :     0.000008  d :     0.000039
      dxz     :     0.000002
      dyz     :     0.000002
      dx2y2   :     0.000023
      dxy     :     0.000004
      f0      :     0.000000  f :     0.000001
      f+1     :     0.000000
      f-1     :     0.000000
      f+2     :     0.000000
      f-2     :    -0.000000
      f+3     :    -0.000000
      f-3     :     0.000001

 15 F s       :     0.000093  s :     0.000093
      pz      :     0.000002  p :     0.001238
      px      :     0.000672
      py      :     0.000563
      dz2     :     0.000003  d :     0.000002
      dxz     :    -0.000001
      dyz     :    -0.000001
      dx2y2   :    -0.000000
      dxy     :     0.000002
      f0      :    -0.000000  f :    -0.000000
      f+1     :    -0.000000
      f-1     :    -0.000000
      f+2     :     0.000000
      f-2     :     0.000000
      f+3     :    -0.000000
      f-3     :     0.000000

 16 F s       :     0.000217  s :     0.000217
      pz      :     0.001295  p :     0.031315
      px      :     0.009334
      py      :     0.020686
      dz2     :     0.000038  d :     0.000027
      dxz     :    -0.000020
[...]
  7:     33.19   0.000302    1.53  0.002838  (-0.024603  0.005689 -0.046904)
  8:     48.60   0.000262    1.33  0.001684  (-0.001863 -0.040922 -0.002411)
  9:     55.71   0.000426    2.15  0.002387  ( 0.021323 -0.016412  0.040784)
 10:     63.17   0.000096    0.49  0.000474  ( 0.004566  0.021060 -0.003162)
 11:     68.10   0.000466    2.35  0.002135  (-0.006730 -0.045406 -0.005305)
 12:     85.48   0.000233    1.18  0.000851  (-0.011410  0.012054 -0.023994)
 13:     99.09   0.000504    2.55  0.001588  ( 0.020572 -0.011612  0.032093)
 14:    130.23   0.000135    0.68  0.000324  (-0.016411  0.005070 -0.005368)
 15:    143.10   0.001045    5.28  0.002279  ( 0.045138 -0.014285 -0.006154)
 16:    154.36   0.000011    0.06  0.000022  ( 0.003693 -0.001002  0.002754)
 17:    170.99   0.001558    7.87  0.002844  ( 0.025564 -0.011370  0.045396)
 18:    189.14   0.000334    1.69  0.000552  ( 0.013420  0.005788 -0.018393)
 19:    194.59   0.000090    0.46  0.000145  ( 0.006923 -0.009850  0.000304)
 20:    201.03   0.000890    4.50  0.001382  (-0.015520 -0.032848 -0.007882)
 21:    210.57   0.000789    3.99  0.001170  (-0.007646  0.009582  0.031927)
 22:    235.21   0.000037    0.19  0.000049  ( 0.001838  0.002872 -0.006132)
 23:    242.55   0.000054    0.27  0.000070  (-0.000678 -0.003667 -0.007463)
 24:    258.51   0.000829    4.19  0.001001  ( 0.030359 -0.001120 -0.008812)
 25:    267.01   0.000409    2.07  0.000478  ( 0.016542  0.002660  0.014045)
 26:    284.75   0.000441    2.23  0.000484  (-0.018781  0.009830  0.005861)
 27:    298.52   0.000109    0.55  0.000114  ( 0.008719 -0.005765 -0.002272)
 28:    328.97   0.000029    0.15  0.000027  (-0.001824  0.002203 -0.004392)
 29:    335.57   0.000364    1.84  0.000339  (-0.014452  0.007464 -0.008606)
 30:    349.13   0.000044    0.22  0.000039  (-0.000443 -0.001444 -0.006069)
 31:    353.04   0.000089    0.45  0.000078  (-0.008682  0.001281  0.001108)
 32:    361.60   0.000255    1.29  0.000220  ( 0.014178 -0.000300  0.004308)
 33:    365.28   0.000120    0.61  0.000102  (-0.009753  0.002241 -0.001482)
 34:    401.55   0.000393    1.98  0.000305  ( 0.006185  0.016334 -0.000262)
 35:    432.79   0.000326    1.65  0.000235  ( 0.005543  0.005874 -0.013041)
 36:    465.79   0.001862    9.41  0.001247  (-0.029529  0.019030  0.003626)
 37:    488.95   0.005186   26.21  0.003310  ( 0.056237 -0.010900 -0.005324)
 38:    521.41   0.006577   33.24  0.003936  (-0.061829  0.009634  0.004534)
 39:    529.68   0.005448   27.53  0.003210  ( 0.055238 -0.009296  0.008478)
 40:    543.34   0.005551   28.05  0.003188  (-0.043664  0.028776 -0.021302)
 41:    558.19   0.011328   57.25  0.006333  ( 0.072995  0.027262 -0.016169)
 42:    582.43   0.000512    2.59  0.000275  (-0.014939  0.006279 -0.003450)
 43:    586.72   0.002463   12.45  0.001310  (-0.035457 -0.002609 -0.006772)
 44:    628.57   0.015062   76.12  0.007478  (-0.081444 -0.020670 -0.020437)
 45:    632.67   0.026941  136.15  0.013289  ( 0.113103 -0.004470 -0.021828)
 46:    653.94   0.002393   12.10  0.001142  ( 0.018872 -0.019933 -0.019716)
 47:    703.37   0.001948    9.85  0.000864  (-0.025226  0.002764  0.014844)
 48:    709.88   0.005298   26.77  0.002329  ( 0.028850  0.010290  0.037293)
 49:    758.63   0.000720    3.64  0.000296  ( 0.010722 -0.012280 -0.005524)
 50:    784.23   0.016570   83.74  0.006593  ( 0.054948  0.025029 -0.054293)
 51:    866.23   0.004764   24.08  0.001716  ( 0.021174  0.007563  0.034797)
 52:    978.82   0.027473  138.84  0.008759  (-0.042435 -0.009099 -0.082919)
 53:   1028.66   0.009269   46.84  0.002812  (-0.025796 -0.037932 -0.026601)
 54:   1056.62   0.066675  336.95  0.019692  ( 0.011891 -0.083926 -0.111834)
 55:   1077.72   0.044471  224.74  0.012877  (-0.036603 -0.080986 -0.070558)
 56:   1089.57   0.043467  219.67  0.012450  (-0.016050 -0.025322  0.107474)
 57:   1098.80   0.036913  186.54  0.010483  ( 0.031735  0.078965 -0.056928)
 58:   1106.61   0.023088  116.68  0.006511  ( 0.034489 -0.036433  0.063198)
 59:   1121.09   0.094109  475.59  0.026196  (-0.024961 -0.087945 -0.133561)
 60:   1135.42   0.096657  488.47  0.026566  (-0.011734  0.162255 -0.010066)
 61:   1140.16   0.051324  259.37  0.014048  ( 0.035319 -0.087190  0.072096)
 62:   1152.77   0.118231  597.49  0.032006  (-0.085418 -0.088939  0.129614)
 63:   1156.64   0.037453  189.27  0.010105  ( 0.076020 -0.063992 -0.015201)
 64:   1169.90   0.003919   19.80  0.001045  (-0.005737  0.031724 -0.002434)
 65:   1224.83   0.015128   76.45  0.003854  (-0.047972  0.005964  0.038955)
 66:   1235.47   0.007279   36.78  0.001839  (-0.026938  0.000737 -0.033351)
 67:   1272.67   0.039565  199.94  0.009701  ( 0.095755 -0.005073  0.022508)
 68:   1289.70   0.030185  152.54  0.007304  ( 0.067806  0.019119 -0.048378)
 69:   1328.89   0.006158   31.12  0.001446  (-0.036237  0.001503  0.011434)
 70:   1378.02   0.007678   38.80  0.001739  (-0.009912 -0.030349  0.026822)
 71:   1572.00   0.151524  765.74  0.030080  ( 0.015619  0.152513  0.081090)

* The epsilon (eps) is given for a Dirac delta lineshape.
** The dipole moment derivative (T) already includes vibrational overlap.

The first frequency considered to be a vibration is 6
The total number of vibrations considered is 66


--------------------------
THERMOCHEMISTRY AT 298.15K
--------------------------

Temperature         ...   298.15 K
Pressure            ...     1.00 atm
Total Mass          ...   394.06 AMU
Quasi RRHO          ...     True
Cut-Off Frequency   ...     1.00 cm^-1

Throughout the following assumptions are being made:
  (1) The electronic state is orbitally nondegenerate
      but the spin degeneracy is treated
  (2) There are no thermally accessible electronically excited states
  (3) Hindered rotations indicated by low frequency modes are not
      treated as such but are treated as vibrations and this may
      cause some error
  (4) All equations used are the standard statistical mechanics
      equations for an ideal gas
  (5) All vibrations are strictly harmonic

freq.      27.19  E(vib)   ...       0.55 
freq.      33.19  E(vib)   ...       0.55 
freq.      48.60  E(vib)   ...       0.53 
freq.      55.71  E(vib)   ...       0.52 
freq.      63.17  E(vib)   ...       0.51 
freq.      68.10  E(vib)   ...       0.50 
freq.      85.48  E(vib)   ...       0.48 
freq.      99.09  E(vib)   ...       0.46 
freq.     130.23  E(vib)   ...       0.43 
freq.     143.10  E(vib)   ...       0.41 
freq.     154.36  E(vib)   ...       0.40 
freq.     170.99  E(vib)   ...       0.38 
freq.     189.14  E(vib)   ...       0.36 
freq.     194.59  E(vib)   ...       0.36 
freq.     201.03  E(vib)   ...       0.35 
freq.     210.57  E(vib)   ...       0.34 
freq.     235.21  E(vib)   ...       0.32 
freq.     242.55  E(vib)   ...       0.31 
freq.     258.51  E(vib)   ...       0.30 
freq.     267.01  E(vib)   ...       0.29 
freq.     284.75  E(vib)   ...       0.28 
freq.     298.52  E(vib)   ...       0.26 
freq.     328.97  E(vib)   ...       0.24 
freq.     335.57  E(vib)   ...       0.24 
freq.     349.13  E(vib)   ...       0.23 
freq.     353.04  E(vib)   ...       0.22 
freq.     361.60  E(vib)   ...       0.22 
freq.     365.28  E(vib)   ...       0.22 
freq.     401.55  E(vib)   ...       0.19 
freq.     432.79  E(vib)   ...       0.17 
freq.     465.79  E(vib)   ...       0.16 
freq.     488.95  E(vib)   ...       0.15 
freq.     521.41  E(vib)   ...       0.13 
freq.     529.68  E(vib)   ...       0.13 
freq.     543.34  E(vib)   ...       0.12 
freq.     558.19  E(vib)   ...       0.12 
freq.     582.43  E(vib)   ...       0.11 
freq.     586.72  E(vib)   ...       0.11 
freq.     628.57  E(vib)   ...       0.09 
freq.     632.67  E(vib)   ...       0.09 
freq.     653.94  E(vib)   ...       0.08 
freq.     703.37  E(vib)   ...       0.07 
freq.     709.88  E(vib)   ...       0.07 
freq.     758.63  E(vib)   ...       0.06 
freq.     784.23  E(vib)   ...       0.05 
freq.     866.23  E(vib)   ...       0.04 
freq.     978.82  E(vib)   ...       0.03 
freq.    1028.66  E(vib)   ...       0.02 
freq.    1056.62  E(vib)   ...       0.02 
freq.    1077.72  E(vib)   ...       0.02 
freq.    1089.57  E(vib)   ...       0.02 
freq.    1098.80  E(vib)   ...       0.02 
freq.    1106.61  E(vib)   ...       0.02 
freq.    1121.09  E(vib)   ...       0.01 
freq.    1135.42  E(vib)   ...       0.01 
freq.    1140.16  E(vib)   ...       0.01 
freq.    1152.77  E(vib)   ...       0.01 
freq.    1156.64  E(vib)   ...       0.01 
freq.    1169.90  E(vib)   ...       0.01 
freq.    1224.83  E(vib)   ...       0.01 
freq.    1235.47  E(vib)   ...       0.01 
freq.    1272.67  E(vib)   ...       0.01 
freq.    1289.70  E(vib)   ...       0.01 
freq.    1328.89  E(vib)   ...       0.01 
freq.    1378.02  E(vib)   ...       0.01 
freq.    1572.00  E(vib)   ...       0.00 

------------
INNER ENERGY
------------

The inner energy is: U= E(el) + E(ZPE) + E(vib) + E(rot) + E(trans)
    E(el)   - is the total energy from the electronic structure calculation
              = E(kin-el) + E(nuc-el) + E(el-el) + E(nuc-nuc)
    E(ZPE)  - the the zero temperature vibrational energy from the frequency calculation
    E(vib)  - the the finite temperature correction to E(ZPE) due to population
              of excited vibrational states
    E(rot)  - is the rotational thermal energy
    E(trans)- is the translational thermal energy

Summary of contributions to the inner energy U:
Electronic energy                ...  -1853.95261216 Eh
Zero point energy                ...      0.09116638 Eh      57.21 kcal/mol
Thermal vibrational correction   ...      0.01980695 Eh      12.43 kcal/mol
Thermal rotational correction    ...      0.00141627 Eh       0.89 kcal/mol
Thermal translational correction ...      0.00141627 Eh       0.89 kcal/mol
-----------------------------------------------------------------------
Total thermal energy                  -1853.83880629 Eh


Summary of corrections to the electronic energy:
(perhaps to be used in another calculation)
Total thermal correction                  0.02263949 Eh      14.21 kcal/mol
Non-thermal (ZPE) correction              0.09116638 Eh      57.21 kcal/mol
-----------------------------------------------------------------------
Total correction                          0.11380587 Eh      71.41 kcal/mol


--------
ENTHALPY
--------

The enthalpy is H = U + kB*T
                kB is Boltzmann's constant
Total thermal energy              ...  -1853.83880629 Eh 
Thermal Enthalpy correction       ...      0.00094421 Eh       0.59 kcal/mol
-----------------------------------------------------------------------
Total Enthalpy                    ...  -1853.83786208 Eh


Note: Only C1 symmetry has been detected, increase convergence thresholds 
      if your molecule has a higher symmetry. Symmetry factor of 1.0 is   
      used for the rotational entropy correction. 
 

Note: Rotational entropy computed according to Herzberg 
Infrared and Raman Spectra, Chapter V,1, Van Nostrand Reinhold, 1945 
Point Group:  C1, Symmetry Number:   1  
Rotational constants in cm-1:     0.019972     0.004015     0.003995 

Vibrational entropy computed according to the QRRHO of S. Grimme
Chem.Eur.J. 2012 18 9955 using a reference frequency of 100.0 cm-1


-------
ENTROPY
-------

The entropy contributions are T*S = T*(S(el)+S(vib)+S(rot)+S(trans))
     S(el)   - electronic entropy
     S(vib)  - vibrational entropy
     S(rot)  - rotational entropy
     S(trans)- translational entropy
The entropies will be listed as multiplied by the temperature to get
units of energy

Electronic entropy                ...      0.00065446 Eh      0.41 kcal/mol
Vibrational entropy               ...      0.03543225 Eh     22.23 kcal/mol
Rotational entropy                ...      0.01657033 Eh     10.40 kcal/mol
Translational entropy             ...      0.02081341 Eh     13.06 kcal/mol
-----------------------------------------------------------------------
Final entropy term                ...      0.07347045 Eh     46.10 kcal/mol

In case the symmetry of your molecule has not been determined correctly
or in case you have a reason to use a different symmetry number we print 
out the resulting rotational entropy values for sn=1,12:

 non-linear molecules -----------------------------------
|  sn= 1 | S(rot)=       0.01657033 Eh     10.40 kcal/mol|
|  sn= 2 | S(rot)=       0.01591588 Eh      9.99 kcal/mol|
|  sn= 3 | S(rot)=       0.01553304 Eh      9.75 kcal/mol|
|  sn= 4 | S(rot)=       0.01526142 Eh      9.58 kcal/mol|
|  sn= 5 | S(rot)=       0.01505073 Eh      9.44 kcal/mol|
|  sn= 6 | S(rot)=       0.01487859 Eh      9.34 kcal/mol|
|  sn= 7 | S(rot)=       0.01473304 Eh      9.25 kcal/mol|
|  sn= 8 | S(rot)=       0.01460696 Eh      9.17 kcal/mol|
|  sn= 9 | S(rot)=       0.01449576 Eh      9.10 kcal/mol|
|  sn=10 | S(rot)=       0.01439628 Eh      9.03 kcal/mol|
|  sn=11 | S(rot)=       0.01430629 Eh      8.98 kcal/mol|
|  sn=12 | S(rot)=       0.01422413 Eh      8.93 kcal/mol|
 linear molecules ---------------------------------------
|  Dinfh | S(rot)=       0.01054024 Eh      6.61 kcal/mol|
|  Cinfv | S(rot)=       0.01119470 Eh      7.02 kcal/mol|
 --------------------------------------------------------


-------------------
GIBBS FREE ENERGY
-------------------

The Gibbs free energy is G = H - T*S

Total enthalpy                    ...  -1853.83786208 Eh 
Total entropy correction          ...     -0.07347045 Eh    -46.10 kcal/mol
-----------------------------------------------------------------------
Final Gibbs free energy         ...  -1853.91133254 Eh

For completeness - the Gibbs free energy minus the electronic energy
G-E(el)                           ...      0.04127962 Eh     25.90 kcal/mol


Maximum memory used throughout the entire PROP-calculation: 523.0 MB

--------------------------------
SUGGESTED CITATIONS FOR THIS RUN
--------------------------------

Below you find a list of papers that are relevant to this ORCA run
We neither can nor want to force you to cite these papers, but we appreciate if you do
You receive ORCA, which is the product of decades of hard work by many enthusiastic individuals, for free
The only thing we kindly ask in return is that you cite our papers,
We deeply appreciate it, if you show your appreciation for ORCA by not just citing the generic ORCA reference.

Please note that relegating all ORCA citations to the supporting information does *not* help us.
SI sections are not indexed - citations you put there will not count into any citation statistics
But we need these citations in order to attract the funding resources that allow us to do what we are doing

Therefore, if you are a happy ORCA user, please consider citing a few of the papers listed below in the main body of your paper

In addition to the list printed below, the program has created the file rf_mecn_freq_TP_C6_D_B.bibtex that contains the list in bibtex format
You can import this file easily into all common literature databanks and citation aid programs


List of essential papers. We consider these as the minimum necessary citations

  1. Neese,F.
     Software update: the ORCA program system, version 5.0
     WIRES Comput. Molec. Sci., 2022 12(1)e1606
     doi.org/10.1002/wcms.1606

List of papers to cite with high priority. The work reported in these papers was absolutely
necessary for this run to complete.
Our perspective: the developers of density functionals and basis sets usually get cited in chemistry papers
Good! But without the algorithms to do something with them, the functionals or basis sets would not do anything.
Hence, in our opinion, the algorithm design and method developments papers are equally worthy of getting cited

  1. Neese,F.
     An improvement of the resolution of the identity approximation for the formation of the Coulomb matrix
     J. Comp. Chem., 2003 24(14)1740-1747
     doi.org/10.1002/jcc.10318
  2. Neese,F.; Wennmohs,F.; Hansen,A.; Becker,U.
     Efficient, approximate and parallel Hartree-Fock and hybrid DFT calculations. A 'chain-of-spheres' algorithm for the Hartree-Fock exchange
     Chem. Phys., 2009 356(1-3)98-109
     doi.org/10.1016/j.chemphys.2008.10.036
  3. Bykov,D.; Petrenko,T.; Izsak,R.; Kossmann,S.; Becker,U.; Valeev,E.; Neese,F.
     Efficient implementation of the analytic second derivatives of Hartree-Fock and hybrid DFT energies: a detailed analysis of different approximations
     Molec. Phys., 2015 113 1961-1977
     doi.org/10.1080/00268976.2015.1025114
  4. Garcia-Rates,M.; Neese,F.
     Efficient implementation of the analytical second derivatives of hartree-fock and hybrid DFT energies within the framework of the conductor-like polarizable continuum model
     J. Comput. Chem., 2019 40 1816-1828
     doi.org/10.1002/jcc.25833
  5. Garcia-Rates,M.; Neese,F.
     Effect of the Solute Cavity on the Solvation Energy and its Derivatives within the Framework of the Gaussian Charge Scheme
     J. Comput. Chem., 2020 41 922-939
     doi.org/10.1002/jcc.26139
  6. Helmich-Paris,B.; de Souza,B.; Neese,F.; Izsák,R.
     An improved chain of spheres for exchange algorithm
     J. Chem. Phys., 2021 155 104109
     doi.org/doi: 10.1063/5.0058766.
  7. Neese,F.
     The SHARK Integral Generation and Digestion System
     J. Comp. Chem., 2022  1-16
     doi.org/10.1002/jcc.26942
  8. Grimme,S.; Antony,J.; Ehrlich,S.; Krieg,H.
     A consistent and accurate ab initio parametrization of density functional dispersion correction (DFT-D) for the 94 elements H-Pu
     J. Chem. Phys., 2010 132 154104
     doi.org/10.1063/1.3382344
  9. Grimme,S.; Ehrlich,S.; Goerigk,L.
     Effect of the damping function in dispersion corrected density functional theory
     J. Comput. Chem., 2011 32(7)1456-1465
     doi.org/10.1002/jcc.21759

List of suggested additional citations. These are papers that are important in the 'surrounding' of 
of this run, or papers that preceded the highly important papers. If you like your results we are grateful for a citation.

  1. Izsak,R.; Neese,F.
     An overlap fitted chain of spheres exchange method
     J. Chem. Phys., 2011 135 144105
     doi.org/10.1063/1.3646921
  2. Izsak,R.; Hansen,A.; Neese,F.
     The resolution of identity and chain of spheres approximations for the LPNO-CCSD singles Fock term
     Molec. Phys., 2012 110 2413-2417
     doi.org/10.1080/00268976.2012.687466
  3. Neese,F.
     The ORCA program system
     WIRES Comput. Molec. Sci., 2012 2(1)73-78
     doi.org/10.1002/wcms.81
  4. Izsak,R.; Neese,F.; Klopper,W.
     Robust fitting techniques in the chain of spheres approximation to the Fock exchange: The role of the complementary space
     J. Chem. Phys., 2013 139 
     doi.org/10.1063/1.4819264
  5. Neese,F.
     Software update: the ORCA program system, version 4.0
     WIRES Comput. Molec. Sci., 2018 8(1)1-6
     doi.org/10.1002/wcms.1327
  6. Neese,F.; Wennmohs,F.; Becker,U.; Riplinger,C.
     The ORCA quantum chemistry program package
     J. Chem. Phys., 2020 152 Art. No. L224108
     doi.org/10.1063/5.0004608

List of optional additional citations

  1. Neese,F.
     Approximate second-order SCF convergence for spin unrestricted wavefunctions
     Chem. Phys. Lett., 2000 325(1-3)93-98
     doi.org/10.1016/s0009-2614(00)00662-x

Timings for individual modules:

Sum of individual times          ...     1283.072 sec (=  21.385 min)
Startup calculation              ...        3.996 sec (=   0.067 min)   0.3 %
SCF iterations                   ...       84.027 sec (=   1.400 min)   6.5 %
Property integrals               ...      393.144 sec (=   6.552 min)  30.6 %
SCF Response                     ...      543.167 sec (=   9.053 min)  42.3 %
Property calculations            ...      258.737 sec (=   4.312 min)  20.2 %
                             ****ORCA TERMINATED NORMALLY****
TOTAL RUN TIME: 0 days 0 hours 21 minutes 23 seconds 929 msec
