
                                 *****************
                                 * O   R   C   A *
                                 *****************

                                            #,                                       
                                            ###                                      
                                            ####                                     
                                            #####                                    
                                            ######                                   
                                           ########,                                 
                                     ,,################,,,,,                         
                               ,,#################################,,                 
                          ,,##########################################,,             
                       ,#########################################, ''#####,          
                    ,#############################################,,   '####,        
                  ,##################################################,,,,####,       
                ,###########''''           ''''###############################       
              ,#####''   ,,,,##########,,,,          '''####'''          '####       
            ,##' ,,,,###########################,,,                        '##       
           ' ,,###''''                  '''############,,,                           
         ,,##''                                '''############,,,,        ,,,,,,###''
      ,#''                                            '''#######################'''  
     '                                                          ''''####''''         
             ,#######,   #######,   ,#######,      ##                                
            ,#'     '#,  ##    ##  ,#'     '#,    #''#        ,####,   ,####,        
            ##       ##  ##   ,#'  ##            #'  '#       #'       #'  '#        
            ##       ##  #######   ##           ,######,      #####,   #    #        
            '#,     ,#'  ##    ##  '#,     ,#' ,#      #,     #,   #   #,  ,#        
             '#######'   ##     ##  '#######'  #'      '#     '####' # '####'        



                #########################################################
                #                        -***-                          #
                #          Department of theory and spectroscopy        #
                #                                                       #
                #                      Frank Neese                      #
                #                                                       #
                #     Directorship, Architecture, Infrastructure        #
                #                    SHARK, DRIVERS                     #
                #        Core code/Algorithms in most modules           #
                #                                                       #
                #        Max Planck Institute fuer Kohlenforschung      #
                #                Kaiser Wilhelm Platz 1                 #
                #                 D-45470 Muelheim/Ruhr                 #
                #                      Germany                          #
                #                                                       #
                #                  All rights reserved                  #
                #                        -***-                          #
                #########################################################


                         Program Version 6.0.1  -  RELEASE   -


 With contributions from (in alphabetic order):
[Max-Planck-Institut fuer Kohlenforschung]                               
  Daniel Aravena         : Magnetic Suceptibility                        
  Michael Atanasov       : Ab Initio Ligand Field Theory (pilot matlab implementation)
  Alexander A. Auer      : GIAO ZORA, VPT2 properties, NMR spectrum      
  Ute Becker             : All parallelization in ORCA, NUMFREQ, NUMCALC 
  Giovanni Bistoni       : ED, misc. LED, open-shell LED, HFLD           
  Martin Brehm           : Molecular dynamics                            
  Dmytro Bykov           : pre 5.0 version of the SCF Hessian            
  Marcos Casanova-Páez   : Triplet and SCS-CIS(D). UHF-(DLPNO)-IP/EA/STEOM-CCSD. UHF-CVS-IP/STEOM-CCSD   
  Vijay G. Chilkuri      : MRCI spin determinant printing, contributions to CSF-ICE 
  Pauline Colinet        : FMM embedding                                 
  Dipayan Datta          : RHF DLPNO-CCSD density                        
  Achintya Kumar Dutta   : EOM-CC, STEOM-CC                              
  Nicolas Foglia         : Exact transition moments, OPA infrastructure, MCD improvements    
  Dmitry Ganyushin       : Spin-Orbit,Spin-Spin,Magnetic field MRCI      
  Miquel Garcia-Rates    : C-PCM and meta-GGA Hessian, CCSD/C-PCM, Gaussian charge scheme 
  Tiago L. C. Gouveia    : GS-ROHF, GS-ROCIS                             
  Yang Guo               : DLPNO-NEVPT2, F12-NEVPT2, CIM, IAO-localization        
  Andreas Hansen         : Spin unrestricted coupled pair/coupled cluster methods 
  Ingolf Harden          : AUTO-CI MPn and infrastructure                
  Benjamin Helmich-Paris : MC-RPA, TRAH-(SCF,CASSCF), AVAS, COSX integrals, SCF dyn. polar. 
  Lee Huntington         : MR-EOM, pCC                                   
  Robert Izsak           : Overlap fitted RIJCOSX, COSX-SCS-MP3, EOM     
  Riya Kayal             : Wick's Theorem for AUTO-CI, AUTO-CI UHF-CCSDT 
  Emily Kempfer          : AUTO-CI, RHF CISDT and CCSDT                  
  Christian Kollmar      : KDIIS, OOCD, Brueckner-CCSD(T), CCSD density, CASPT2, CASPT2-K, improved NEVPT2 
  Axel Koslowski         : Symmetry handling                             
  Simone Kossmann        : meta-GGA functionals, TD-DFT gradient, OOMP2, (MP2 Hessian; deprecated post 5.0) 
  Lucas Lang             : DCDCAS                                        
  Marvin Lechner         : AUTO-CI (C++ implementation), FIC-MRCC        
  Spencer Leger          : CASSCF response                               
  Dagmar Lenk            : GEPOL surface, SMD, ORCA-2-JSON               
  Dimitrios Liakos       : Extrapolation schemes; Compound Job, initial MDCI parallelization 
  Dimitrios Manganas     : Further ROCIS development; embedding schemes. LFT, Crystal Embedding 
  Dimitrios Pantazis     : SARC Basis sets                               
  Anastasios Papadopoulos: AUTO-CI, single reference methods and gradients 
  Taras Petrenko         : pre 6.0 DFT Hessian and TD-DFT gradient, (ASA, deprecated), ECA, 1-Electron XAS/XES, NRVS 
  Peter Pinski           : DLPNO-MP2, DLPNO-MP2 Gradient                 
  Christoph Reimann      : Effective Core Potentials                     
  Marius Retegan         : Local ZFS, SOC                                
  Christoph Riplinger    : Optimizer, TS searches, QM/MM, DLPNO-CCSD(T), (RO)-DLPNO pert. Triples 
  Michael Roemelt        : Original ROCIS implementation                 
  Masaaki Saitow         : Open-shell DLPNO-CCSD energy and density      
  Barbara Sandhoefer     : DKH picture change effects                    
  Kantharuban Sivalingam : CASSCF convergence/infrastructure, NEVPT2 and variants, FIC-MRCI 
  Bernardo de Souza      : ESD, SOC TD-DFT                               
  Georgi L. Stoychev     : AutoAux, RI-MP2 NMR, DLPNO-MP2 response, X2C  
  Van Anh Tran           : RI-MP2 g-tensors                              
  Willem Van den Heuvel  : Paramagnetic NMR                              
  Zikuan Wang            : NOTCH, Electric field optimization            
  Frank Wennmohs         : Technical directorship and infrastructure     
  Hang Xu                : AUTO-CI-Response properties                   
                                                                         
[FACCTs GmbH]                                                            
  Markus Bursch, Miquel Garcia-Rates, Christoph Riplinger, Bernardo de Souza, Georgi L. Stoychev 
                                                                 
  APM, Basis sets (HGBS, AHGBS, def-TZVP (Ac-Lr), def2-XVPD (La-Lu)), CI-OPT, improved COSX, DLPNO-Multilevel,           
  DOCKER, DRACO, updates on ESD, GOAT, IRC, LR-CPCM, MBIS, meta-GGA TD-DFT gradient, ML-optimized integration grids, 
  MM, NACMEs, nearIR, NEB, NEB-TS, NL-DFT gradient (VV10), 2- and 3-layer-ONIOM, interface openCOSMO-RS, QMMM,   
  Crystal-QMMM, SF, symmetry and pop. for TD-DFT, r2SCAN hybrids, SOLVATOR                                   
                                                                         
[Other institutions]                                                     
  V. Asgeirsson          : NEB                                           
  Christoph Bannwarth    : sTDA-DFT, sTD-DFT, PBEh-3c, B97-3c, D3        
  Sebastian Ehlert       : rSCAN, r2SCAN, r2SCAN-3c, D4, dhf basis sets  
  Marvin Friede          : D4 for Fr, Ra, Ac-Lr                          
  Lars Goerigk           : TD-DFT with DH, B97 family of functionals     
  Stefan Grimme          : VdW corrections, initial TS optimization, DFT functionals, gCP, sTDA/sTD-DF 
  Waldemar Hujo          : DFT-NL                                        
  H. Jonsson             : NEB                                           
  Holger Kruse           : gCP                                           
  Marcel Mueller         : wB97X-3c, vDZP basis set                      
  Hagen Neugebauer       : wr2SCAN                                       
  Tobias Risthaus        : range-separated hybrid DFT                    
  Lukas Wittmann         : regularized MP2, r2SCAN double-hybrids, wr2SCAN        
                                                                         
We gratefully acknowledge several colleagues who have allowed us to      
interface, adapt or use parts of their codes:                            
  Ed Valeev, F. Pavosevic, A. Kumar             : LibInt (2-el integral package), F12 methods 
  Garnet Chan, S. Sharma, J. Yang, R. Olivares  : DMRG                   
  Ulf Ekstrom                                   : XCFun DFT Library      
  Mihaly Kallay                                 : mrcc  (arbitrary order and MRCC methods)
  Frank Weinhold                                : gennbo (NPA and NBO analysis)           
  Simon Mueller                                 : openCOSMO-RS                            
  Christopher J. Cramer and Donald G. Truhlar   : smd solvation model                     
  S Lehtola, MJT Oliveira, MAL Marques          : LibXC Library                           
  Liviu Ungur et al                             : ANISO software                          


 Your calculation uses the libint2 library for the computation of 2-el integrals
 For citations please refer to: http://libint.valeyev.net

 Your ORCA version has been built with support for libXC version: 6.2.2
 For citations please refer to: https://libxc.gitlab.io

 This ORCA versions uses:
   CBLAS   interface :  Fast vector & matrix operations
   LAPACKE interface :  Fast linear algebra routines
   SCALAPACK package :  Parallel linear algebra routines
   Shared memory     :  Shared parallel matrices
   BLAS/LAPACK       :  OpenBLAS 0.3.27  USE64BITINT DYNAMIC_ARCH NO_AFFINITY SkylakeX SINGLE_THREADED
        Core in use  :  SkylakeX
   Copyright (c) 2011-2014, The OpenBLAS Project


NOTE: MaxCore=8000 MB was set to SCF,MP2,MDCI,CIPSI,MRCI and CIS
      => If you want to overwrite this, your respective input block should be placed after the MaxCore statement
Your calculation utilizes the atom-pairwise dispersion correction
with the Becke-Johnson damping scheme (D3BJ)


Your calculation utilizes the SMD solvation module
Please cite in your paper:
A.V. Marenich, C.J. Cramer, D.G. Truhlar J. Phys. Chem. B, 113, (2009), 6378 

Warning: RI is on but no J-basis has been assigned. Assigning Def2/J (nothing to worry about!)
================================================================================

----- Orbital basis set information -----
Your calculation utilizes the basis: def2-TZVP
   F. Weigend and R. Ahlrichs, Phys. Chem. Chem. Phys. 7, 3297 (2005).

----- AuxJ basis set information -----
Your calculation utilizes the auxiliary basis: def2/J
   F. Weigend, Phys. Chem. Chem. Phys. 8, 1057 (2006).

================================================================================
                                        WARNINGS
                       Please study these warnings very carefully!
================================================================================



WARNING: SCAN, rSCAN, or r2SCAN functional requested.
  ===> : libXC variant has now been activated.



WARNING: your system is open-shell and RHF/RKS was chosen
  ===> : WILL SWITCH to UHF/UKS


================================================================================
                                       INPUT FILE
================================================================================
NAME = rf_mecn_freq_r2s_D_A.inp
|  1> !r2scanh def2-TZVP freq d3 TightSCF SlowConv defgrid2
|  2>  
|  3> %pal
|  4> nprocs 20
|  5> end
|  6>  
|  7> %scf
|  8> MaxIter 1500
|  9> end
| 10>  
| 11> %maxcore 8000
| 12>  
| 13> !CPCM
| 14> %cpcm smd true
| 15> SMDsolvent "ACETONITRILE"
| 16> end
| 17>  
| 18> * xyz -2 2
| 19> 6        4.955752000      0.205942000     -0.280283000
| 20> 8        5.418980000     -0.259481000     -1.331315000
| 21> 8        5.331398000      1.156578000      0.424017000
| 22> 6        3.653988000     -0.490537000      0.244906000
| 23> 6        2.364177000      0.309860000     -0.063708000
| 24> 6        0.991304000     -0.411805000      0.034002000
| 25> 6       -0.359461000      0.360457000      0.029217000
| 26> 6       -1.807398000     -0.243389000     -0.012722000
| 27> 6       -3.175673000      0.495433000     -0.012394000
| 28> 6       -4.537572000     -0.214907000     -0.044132000
| 29> 9        3.503315000     -1.736449000     -0.293328000
| 30> 9        3.712742000     -0.670037000      1.597118000
| 31> 9        2.332631000      1.372951000      0.782487000
| 32> 9        2.473088000      0.794962000     -1.329636000
| 33> 9        0.939952000     -1.278015000     -1.023741000
| 34> 9        1.014610000     -1.140377000      1.191779000
| 35> 9       -0.339648000      1.142143000      1.164056000
| 36> 9       -0.292853000      1.177576000     -1.087952000
| 37> 9       -1.867011000     -1.066287000      1.104613000
| 38> 9       -1.836188000     -1.017535000     -1.158810000
| 39> 9       -3.181217000      1.311969000     -1.114735000
| 40> 9       -3.207398000      1.269483000      1.118368000
| 41> 9       -4.683073000     -1.005658000      1.022949000
| 42> 9       -5.600317000      0.634091000     -0.042086000
| 43> 9       -4.652722000     -0.963413000     -1.145128000
| 44> *
| 45> 
| 46>                          ****END OF INPUT****
================================================================================

                       ****************************
                       * Single Point Calculation *
                       ****************************

---------------------------------
CARTESIAN COORDINATES (ANGSTROEM)
---------------------------------
  C      4.955752    0.205942   -0.280283
  O      5.418980   -0.259481   -1.331315
  O      5.331398    1.156578    0.424017
  C      3.653988   -0.490537    0.244906
  C      2.364177    0.309860   -0.063708
  C      0.991304   -0.411805    0.034002
  C     -0.359461    0.360457    0.029217
  C     -1.807398   -0.243389   -0.012722
  C     -3.175673    0.495433   -0.012394
  C     -4.537572   -0.214907   -0.044132
  F      3.503315   -1.736449   -0.293328
  F      3.712742   -0.670037    1.597118
  F      2.332631    1.372951    0.782487
  F      2.473088    0.794962   -1.329636
  F      0.939952   -1.278015   -1.023741
  F      1.014610   -1.140377    1.191779
  F     -0.339648    1.142143    1.164056
  F     -0.292853    1.177576   -1.087952
  F     -1.867011   -1.066287    1.104613
  F     -1.836188   -1.017535   -1.158810
  F     -3.181217    1.311969   -1.114735
  F     -3.207398    1.269483    1.118368
  F     -4.683073   -1.005658    1.022949
  F     -5.600317    0.634091   -0.042086
  F     -4.652722   -0.963413   -1.145128

----------------------------
CARTESIAN COORDINATES (A.U.)
----------------------------
  NO LB      ZA    FRAG     MASS         X           Y           Z
   0 C     6.0000    0    12.011    9.365014    0.389174   -0.529658
   1 O     8.0000    0    15.999   10.240388   -0.490348   -2.515821
   2 O     8.0000    0    15.999   10.074882    2.185616    0.801276
   3 C     6.0000    0    12.011    6.905037   -0.926981    0.462805
   4 C     6.0000    0    12.011    4.467647    0.585551   -0.120391
   5 C     6.0000    0    12.011    1.873293   -0.778199    0.064254
   6 C     6.0000    0    12.011   -0.679283    0.681165    0.055212
   7 C     6.0000    0    12.011   -3.415487   -0.459939   -0.024041
   8 C     6.0000    0    12.011   -6.001152    0.936233   -0.023421
   9 C     6.0000    0    12.011   -8.574768   -0.406115   -0.083397
  10 F     9.0000    0    18.998    6.620306   -3.281413   -0.554310
  11 F     9.0000    0    18.998    7.016066   -1.266186    3.018116
  12 F     9.0000    0    18.998    4.408034    2.594501    1.478686
  13 F     9.0000    0    18.998    4.673459    1.502260   -2.512648
  14 F     9.0000    0    18.998    1.776252   -2.415098   -1.934590
  15 F     9.0000    0    18.998    1.917335   -2.155000    2.252136
  16 F     9.0000    0    18.998   -0.641842    2.158337    2.199747
  17 F     9.0000    0    18.998   -0.553412    2.225296   -2.055931
  18 F     9.0000    0    18.998   -3.528139   -2.014990    2.087416
  19 F     9.0000    0    18.998   -3.469892   -1.922862   -2.189834
  20 F     9.0000    0    18.998   -6.011629    2.479262   -2.106544
  21 F     9.0000    0    18.998   -6.061104    2.398975    2.113409
  22 F     9.0000    0    18.998   -8.849725   -1.900418    1.933093
  23 F     9.0000    0    18.998  -10.583065    1.198258   -0.079531
  24 F     9.0000    0    18.998   -8.792370   -1.820587   -2.163978

--------------------------------
INTERNAL COORDINATES (ANGSTROEM)
--------------------------------
 C      0   0   0     0.000000000000     0.00000000     0.00000000
 O      1   0   0     1.239301018291     0.00000000     0.00000000
 O      1   2   0     1.241312697032   130.97162630     0.00000000
 C      1   2   3     1.567002231925   115.33012547   178.30575917
 C      4   1   2     1.549028848771   113.28378465   258.38176029
 C      5   4   1     1.554068174326   118.88829857   163.31189407
 C      6   5   4     1.555949092385   122.42779584   167.26938980
 C      7   6   5     1.569366250244   127.59439032   173.81881291
 C      8   7   6     1.555003064593   128.97744668   179.70191558
 C      9   8   7     1.536346023019   124.07821695   180.54241063
 F      4   1   2     1.365538320015   111.41304938    19.76699321
 F      4   1   2     1.365338630326   110.77002885   137.46683419
 F      5   4   1     1.359118685922   107.42455211   285.76233704
 F      5   4   1     1.360058549294   107.64162924    41.38087996
 F      6   5   4     1.368129031215   106.17417890   289.19188892
 F      6   5   4     1.368140310988   106.58563939    44.75942450
 F      7   6   5     1.378145534218   105.45640867   296.83325107
 F      7   6   5     1.385707999683   104.68018188    51.98394108
 F      8   7   6     1.388939282473   104.24473581    57.78722656
 F      8   7   6     1.383346882441   104.87234341   302.70034695
 F      9   8   7     1.371829965963   106.62995052    58.98238810
 F      9   8   7     1.370686900342   106.78921079   302.48000704
 F     10   9   8     1.336083659642   110.71251980    60.33994599
 F     10   9   8     1.360231129310   113.82655180   180.19845946
 F     10   9   8     1.336305708493   110.63336854   300.03095234

---------------------------
INTERNAL COORDINATES (A.U.)
---------------------------
 C      0   0   0     0.000000000000     0.00000000     0.00000000
 O      1   0   0     2.341939522060     0.00000000     0.00000000
 O      1   2   0     2.345741043949   130.97162630     0.00000000
 C      1   2   3     2.961205069582   115.33012547   178.30575917
 C      4   1   2     2.927240297721   113.28378465   258.38176029
 C      5   4   1     2.936763242920   118.88829857   163.31189407
 C      6   5   4     2.940317662931   122.42779584   167.26938980
 C      7   6   5     2.965672416781   127.59439032   173.81881291
 C      8   7   6     2.938529929489   128.97744668   179.70191558
 C      9   8   7     2.903273230444   124.07821695   180.54241063
 F      4   1   2     2.580493450203   111.41304938    19.76699321
 F      4   1   2     2.580116091379   110.77002885   137.46683419
 F      5   4   1     2.568362099887   107.42455211   285.76233704
 F      5   4   1     2.570138184265   107.64162924    41.38087996
 F      6   5   4     2.585389184863   106.17417890   289.19188892
 F      6   5   4     2.585410500544   106.58563939    44.75942450
 F      7   6   5     2.604317632359   105.45640867   296.83325107
 F      7   6   5     2.618608620985   104.68018188    51.98394108
 F      8   7   6     2.624714860520   104.24473581    57.78722656
 F      8   7   6     2.614146756028   104.87234341   302.70034695
 F      9   8   7     2.592382937976   106.62995052    58.98238810
 F      9   8   7     2.590222857000   106.78921079   302.48000704
 F     10   9   8     2.524832208731   110.71251980    60.33994599
 F     10   9   8     2.570464313231   113.82655180   180.19845946
 F     10   9   8     2.525251820248   110.63336854   300.03095234

---------------------
BASIS SET INFORMATION
---------------------
There are 3 groups of distinct atoms

 Group   1 Type C   : 11s6p2d1f contracted to 5s3p2d1f pattern {62111/411/11/1}
 Group   2 Type O   : 11s6p2d1f contracted to 5s3p2d1f pattern {62111/411/11/1}
 Group   3 Type F   : 11s6p2d1f contracted to 5s3p2d1f pattern {62111/411/11/1}

Atom   0C    basis set group =>   1
Atom   1O    basis set group =>   2
Atom   2O    basis set group =>   2
Atom   3C    basis set group =>   1
Atom   4C    basis set group =>   1
Atom   5C    basis set group =>   1
Atom   6C    basis set group =>   1
Atom   7C    basis set group =>   1
Atom   8C    basis set group =>   1
Atom   9C    basis set group =>   1
Atom  10F    basis set group =>   3
Atom  11F    basis set group =>   3
Atom  12F    basis set group =>   3
Atom  13F    basis set group =>   3
Atom  14F    basis set group =>   3
Atom  15F    basis set group =>   3
Atom  16F    basis set group =>   3
Atom  17F    basis set group =>   3
Atom  18F    basis set group =>   3
Atom  19F    basis set group =>   3
Atom  20F    basis set group =>   3
Atom  21F    basis set group =>   3
Atom  22F    basis set group =>   3
Atom  23F    basis set group =>   3
Atom  24F    basis set group =>   3
---------------------------------
AUXILIARY/J BASIS SET INFORMATION
---------------------------------
There are 3 groups of distinct atoms

 Group   1 Type C   : 12s5p4d2f1g contracted to 6s4p3d1f1g pattern {711111/2111/211/2/1}
 Group   2 Type O   : 12s5p4d2f1g contracted to 6s4p3d1f1g pattern {711111/2111/211/2/1}
 Group   3 Type F   : 12s5p4d2f1g contracted to 6s4p3d1f1g pattern {711111/2111/211/2/1}

Atom   0C    basis set group =>   1
Atom   1O    basis set group =>   2
Atom   2O    basis set group =>   2
Atom   3C    basis set group =>   1
Atom   4C    basis set group =>   1
Atom   5C    basis set group =>   1
Atom   6C    basis set group =>   1
Atom   7C    basis set group =>   1
Atom   8C    basis set group =>   1
Atom   9C    basis set group =>   1
Atom  10F    basis set group =>   3
Atom  11F    basis set group =>   3
Atom  12F    basis set group =>   3
Atom  13F    basis set group =>   3
Atom  14F    basis set group =>   3
Atom  15F    basis set group =>   3
Atom  16F    basis set group =>   3
Atom  17F    basis set group =>   3
Atom  18F    basis set group =>   3
Atom  19F    basis set group =>   3
Atom  20F    basis set group =>   3
Atom  21F    basis set group =>   3
Atom  22F    basis set group =>   3
Atom  23F    basis set group =>   3
Atom  24F    basis set group =>   3


           ************************************************************
           *        Program running with 20 parallel MPI-processes    *
           *              working on a common directory               *
           ************************************************************
------------------------------------------------------------------------------
                             ORCA STARTUP CALCULATIONS
                           -- RI-GTO INTEGRALS CHOSEN --
------------------------------------------------------------------------------
------------------------------------------------------------------------------
                   ___                                                        
                  /   \      - P O W E R E D   B Y -                         
                 /     \                                                     
                 |  |  |   _    _      __       _____    __    __             
                 |  |  |  | |  | |    /  \     |  _  \  |  |  /  |          
                  \  \/   | |  | |   /    \    | | | |  |  | /  /          
                 / \  \   | |__| |  /  /\  \   | |_| |  |  |/  /          
                |  |  |   |  __  | /  /__\  \  |    /   |      \           
                |  |  |   | |  | | |   __   |  |    \   |  |\   \          
                \     /   | |  | | |  |  |  |  | |\  \  |  | \   \       
                 \___/    |_|  |_| |__|  |__|  |_| \__\ |__|  \__/        
                                                                              
                      - O R C A' S   B I G   F R I E N D -                    
                                      &                                       
                       - I N T E G R A L  F E E D E R -                       
                                                                              
 v1 FN, 2020, v2 2021, v3 2022-2024                                           
------------------------------------------------------------------------------


----------------------
SHARK INTEGRAL PACKAGE
----------------------

Number of atoms                             ...     25
Number of basis functions                   ...    775
Number of shells                            ...    275
Maximum angular momentum                    ...      3
Integral batch strategy                     ... SHARK/LIBINT Hybrid
RI-J (if used) integral strategy            ... SPLIT-RIJ (Revised 2003 algorithm where possible)
Printlevel                                  ...      1
Contraction scheme used                     ... SEGMENTED contraction
Prescreening option                         ... SCHWARTZ
   Thresh                                   ... 2.500e-11
   Tcut                                     ... 2.500e-12
   Tpresel                                  ... 2.500e-12 
Coulomb Range Separation                    ... NOT USED
Exchange Range Separation                   ... NOT USED
Multipole approximations                    ... NOT USED
Finite Nucleus Model                        ... NOT USED
CABS basis                                  ... NOT available
Auxiliary Coulomb fitting basis             ... AVAILABLE
   # of basis functions in Aux-J            ...   1225
   # of shells in Aux-J                     ...    375
   Maximum angular momentum in Aux-J        ...      4
Auxiliary J/K fitting basis                 ... NOT available
Auxiliary Correlation fitting basis         ... NOT available
Auxiliary 'external' fitting basis          ... NOT available

Checking pre-screening integrals            ... done (  0.0 sec) Dimension = 275
Check shell pair data                       ... done (  0.0 sec)
Shell pair information
Shell pair cut-off parameter TPreSel        ...   2.5e-12
Total number of shell pairs                 ...     37950
Shell pairs after pre-screening             ...     22913
Total number of primitive shell pairs       ...    125800
Primitive shell pairs kept                  ...     48716
          la=0 lb=0:   4246 shell pairs
          la=1 lb=0:   6253 shell pairs
          la=1 lb=1:   2180 shell pairs
          la=2 lb=0:   3397 shell pairs
          la=2 lb=1:   2532 shell pairs
          la=2 lb=2:    708 shell pairs
          la=3 lb=0:   1549 shell pairs
          la=3 lb=1:   1222 shell pairs
          la=3 lb=2:    669 shell pairs
          la=3 lb=3:    157 shell pairs

Calculating one electron integrals          ... done (  0.0 sec)
Calculating RI/J V-Matrix + Cholesky decomp.... done (  0.1 sec)
Calculating Nuclear repulsion               ... done (  0.0 sec) ENN=   2822.573025105152 Eh

Diagonalization of the overlap matrix:
Smallest eigenvalue                        ... 8.885e-05
Time for diagonalization                   ...    0.135 sec
Threshold for overlap eigenvalues          ... 1.000e-07
Number of eigenvalues below threshold      ... 0
Time for construction of square roots      ...    0.064 sec
Total time needed                          ...    0.206 sec

-------------------
DFT GRID GENERATION
-------------------

General Integration Accuracy     IntAcc      ... 4.388
Radial Grid Type                 RadialGrid  ... OptM3 with GC (2021)
Angular Grid (max. ang.)         AngularGrid ... 4 (Lebedev-302)
Angular grid pruning method      GridPruning ... 4 (adaptive)
Weight generation scheme         WeightScheme... mBecke (2022)
Basis function cutoff            BFCut       ... 1.0000e-11
Integration weight cutoff        WCut        ... 1.0000e-14
Partially contracted basis set               ... off
Rotationally invariant grid construction     ... off
Angular grids for H and He will be reduced by one unit

Total number of grid points                  ...   151564
Total number of batches                      ...     2379
Average number of points per batch           ...       63
Average number of grid points per atom       ...     6063

--------------------
COSX GRID GENERATION
--------------------

GRIDX 1
-------
General Integration Accuracy     IntAcc      ... 3.816
Radial Grid Type                 RadialGrid  ... OptM3 with GC (2021)
Angular Grid (max. ang.)         AngularGrid ... 1 (Lebedev-50)
Angular grid pruning method      GridPruning ... 4 (adaptive)
Weight generation scheme         WeightScheme... mBecke (2022)
Basis function cutoff            BFCut       ... 1.0000e-11
Integration weight cutoff        WCut        ... 1.0000e-14
Partially contracted basis set               ... on
Rotationally invariant grid construction     ... off
Angular grids for H and He will be reduced by one unit

Total number of grid points                  ...    18999
Total number of batches                      ...      159
Average number of points per batch           ...      119
Average number of grid points per atom       ...      760
UseSFitting                                  ... on

GRIDX 2
-------
General Integration Accuracy     IntAcc      ... 4.020
Radial Grid Type                 RadialGrid  ... OptM3 with GC (2021)
Angular Grid (max. ang.)         AngularGrid ... 2 (Lebedev-110)
Angular grid pruning method      GridPruning ... 4 (adaptive)
Weight generation scheme         WeightScheme... mBecke (2022)
Basis function cutoff            BFCut       ... 1.0000e-11
Integration weight cutoff        WCut        ... 1.0000e-14
Partially contracted basis set               ... on
Rotationally invariant grid construction     ... off
Angular grids for H and He will be reduced by one unit

Total number of grid points                  ...    45101
Total number of batches                      ...      364
Average number of points per batch           ...      123
Average number of grid points per atom       ...     1804
UseSFitting                                  ... on

GRIDX 3
-------
General Integration Accuracy     IntAcc      ... 4.338
Radial Grid Type                 RadialGrid  ... OptM3 with GC (2021)
Angular Grid (max. ang.)         AngularGrid ... 3 (Lebedev-194)
Angular grid pruning method      GridPruning ... 4 (adaptive)
Weight generation scheme         WeightScheme... mBecke (2022)
Basis function cutoff            BFCut       ... 1.0000e-11
Integration weight cutoff        WCut        ... 1.0000e-14
Partially contracted basis set               ... on
Rotationally invariant grid construction     ... off
Angular grids for H and He will be reduced by one unit

Total number of grid points                  ...   100090
Total number of batches                      ...      794
Average number of points per batch           ...      126
Average number of grid points per atom       ...     4004
UseSFitting                                  ... on
Initializing property integral containers    ... done (  0.0 sec)

SHARK setup successfully completed in   3.8 seconds

Maximum memory used throughout the entire STARTUP-calculation: 58.9 MB


           ************************************************************
           *        Program running with 20 parallel MPI-processes    *
           *              working on a common directory               *
           ************************************************************
-------------------------------------------------------------------------------
                                 ORCA GUESS
                   Start orbitals & Density for SCF / CASSCF
-------------------------------------------------------------------------------

------------
SCF SETTINGS
------------
Hamiltonian:
 Density Functional     Method          .... DFT(GTOs)
  Functional kind                       .... Exchange
  Functional name                       .... Re-regularized SCAN exchange by Furness et al
  Functional family                     .... MGGA
  Functional refs                              
    [ 0] J. W. Furness, A. D. Kaplan, J. Ning, J. P. Perdew, and J. Sun.,  J. Phys. Chem. Lett. 11, 8208-8215 (2020), doi: 10.1021/acs.jpclett.0c02405
    [ 1] J. W. Furness, A. D. Kaplan, J. Ning, J. P. Perdew, and J. Sun.,  J. Phys. Chem. Lett. 11, 9248-9248 (2020), doi: 10.1021/acs.jpclett.0c03077
  Functional external parameters        .... 6
    Parameter  0 _c1        =  6.670000e-01 : c1 parameter        
    Parameter  1 _c2        =  8.000000e-01 : c2 parameter        
    Parameter  2 _d         =  1.240000e+00 : d parameter         
    Parameter  3 _k1        =  6.500000e-02 : k1 parameter        
    Parameter  4 _eta       =  1.000000e-03 : eta parameter       
    Parameter  5 _dp2       =  3.610000e-01 : dp2 parameter       
  Functional kind                       .... Correlation
  Functional name                       .... Re-regularized SCAN correlation by Furness et al
  Functional family                     .... MGGA
  Functional refs                              
    [ 0] J. W. Furness, A. D. Kaplan, J. Ning, J. P. Perdew, and J. Sun.,  J. Phys. Chem. Lett. 11, 8208-8215 (2020), doi: 10.1021/acs.jpclett.0c02405
    [ 1] J. W. Furness, A. D. Kaplan, J. Ning, J. P. Perdew, and J. Sun.,  J. Phys. Chem. Lett. 11, 9248-9248 (2020), doi: 10.1021/acs.jpclett.0c03077
  Functional external parameters        .... 1
    Parameter  0 _eta       =  1.000000e-03 : Regularization parameter
 Gradients option       PostSCFGGA      .... off
 Hybrid DFT is turned on
   Fraction HF Exchange ScalHFX         ....  0.100000
   Scaling of DF-GGA-X  ScalDFX         ....  0.900000
   Scaling of DF-GGA-C  ScalDFC         ....  1.000000
   Scaling of DF-LDA-C  ScalLDAC        ....  1.000000
   Perturbative correction              ....  0.000000
   NL short-range parameter             .... 11.900000
 RI-approximation to the Coulomb term is turned on
   Number of AuxJ basis functions       .... 1225
   RIJ-COSX (HFX calculated with COS-X)).... on


General Settings:
 Integral files         IntName         .... rf_mecn_freq_r2s_D_A
 Hartree-Fock type      HFTyp           .... UHF
 Total Charge           Charge          ....   -2
 Multiplicity           Mult            ....    2
 Number of Electrons    NEL             ....  201
 Basis Dimension        Dim             ....  775
 Nuclear Repulsion      ENuc            ....   2822.5730251052 Eh

Convergence Acceleration:
 AO-DIIS                CNVDIIS         .... on
   Start iteration      DIISMaxIt       ....     0
   Startup error        DIISStart       ....  0.200000
   # of expansion vecs  DIISMaxEq       ....     5
   Bias factor          DIISBfac        ....   1.050
   Max. coefficient     DIISMaxC        ....  10.000
 MO-DIIS                CNVKDIIS        .... off
 Trust-Rad. Augm. Hess. CNVTRAH         .... auto
   Auto Start mean grad. ratio tolernc. ....  1.125000
   Auto Start start iteration           ....    50
   Auto Start num. interpolation iter.  ....    10
   Max. Number of Micro iterations      ....    24
   Max. Number of Macro iterations      .... Maxiter - #DIIS iter
   Number of Davidson start vectors     ....     2
   Converg. threshold    (grad. norm)   ....   1.000e-05
   Grad. Scal. Fac. for Micro threshold ....   0.100
   Minimum threshold for Micro iter.    ....   1.000e-02
   NR start threshold (gradient norm)   ....   1.000e-04
   Initial trust radius                 ....   0.400
   Minimum AH scaling param. (alpha)    ....   1.000
   Maximum AH scaling param. (alpha)    .... 1000.000
   Quad. conv. algorithm                .... NR
   White noise on init. David. guess    .... on
   Maximum white noise                  ....   0.010
   Pseudo random numbers                .... off
   Inactive MOs                         .... canonical
   Orbital update algorithm             .... Taylor
   Preconditioner                       .... Diag
   Full preconditioner red. dimension   ....   250
 SOSCF                  CNVSOSCF        .... on
   Start iteration      SOSCFMaxIt      ....   150
   Startup grad/error   SOSCFStart      ....  0.001000
   Hessian update       SOSCFHessUp     .... L-BFGS
 Level Shifting         CNVShift        .... on
   Level shift para.    LevelShift      ....    0.2500
   Turn off err/grad.   ShiftErr        ....    0.0000
 Zerner damping         CNVZerner       .... off
 Static damping         CNVDamp         .... on
   Fraction old density DampFac         ....    0.8500
   Max. Damping (<1)    DampMax         ....    0.9800
   Min. Damping (>=0)   DampMin         ....    0.0000
   Turn off err/grad.   DampErr         ....    0.0300

SCF Procedure:
 Maximum # iterations   MaxIter         ....  1500
 SCF integral mode      SCFMode         .... Direct
   Integral package                     .... SHARK and LIBINT hybrid scheme
 Reset frequency        DirectResetFreq ....    20
 Integral Threshold     Thresh          ....  2.500e-11 Eh
 Primitive CutOff       TCut            ....  2.500e-12 Eh

Convergence Tolerance:
 Convergence Check Mode ConvCheckMode   .... Total+1el-Energy
 Convergence forced     ConvForced      .... 0
 Energy Change          TolE            ....  1.000e-08 Eh
 1-El. energy change                    ....  1.000e-05 Eh
 Orbital Gradient       TolG            ....  1.000e-05
 Orbital Rotation angle TolX            ....  1.000e-05
 DIIS Error             TolErr          ....  5.000e-07

------------------------------
INITIAL GUESS: MODEL POTENTIAL
------------------------------
Loading Hartree-Fock densities                     ... done
Calculating cut-offs                               ... done
Initializing the effective Hamiltonian             ... done
Setting up the integral package (SHARK)            ... done
Starting the Coulomb interaction                   ... done (   0.2 sec)
Making the grid                                    ... done (   0.5 sec)
Mapping shells                                     ... done
Starting the XC term evaluation                    ... done (   0.1 sec)
  promolecular density results
     # of electrons  =    199.001765563
     EX              =   -207.153682382
     EC              =     -6.989296635
     EX+EC           =   -214.142979017
Transforming the Hamiltonian                       ... done (   0.1 sec)
Diagonalizing the Hamiltonian                      ... done (   0.1 sec)
Back transforming the eigenvectors                 ... done (   0.0 sec)
Now organizing SCF variables                       ... done
                      ------------------
                      INITIAL GUESS DONE (   1.2 sec)
                      ------------------
             **** ENERGY FILE WAS UPDATED (rf_mecn_freq_r2s_D_A.en.tmp) ****
Finished Guess after   2.0 sec
Maximum memory used throughout the entire GUESS-calculation: 48.0 MB


           ************************************************************
           *        Program running with 20 parallel MPI-processes    *
           *              working on a common directory               *
           ************************************************************

-------------------------------------------------------------------------------------------
                                      ORCA LEAN-SCF
                              memory conserving SCF solver
-------------------------------------------------------------------------------------------

--------------------
CPCM SOLVATION MODEL
--------------------
CPCM parameters:
  Epsilon                                         ...      35.6880
  Refrac                                          ...       1.3442
  Rsolv                                           ...       1.3000
  Surface type                                    ... GAUSSIAN VDW
  Discretization scheme                           ... Constant charge density
    Threshold for H atoms                         ...       5.0000 (charges/Ang^2)
    Threshold for non-H atoms                     ...       5.0000 (charges/Ang^2)
  Epsilon function type                           ...         CPCM
Solvent:                                          ... ACETONITRILE
SMD-CDS solvent descriptors:
  Soln                                            ...       1.3442
  Soln25                                          ...       1.3416
  Sola                                            ...       0.0700
  Solb                                            ...       0.3200
  Solg                                            ...      41.2500
  Solc                                            ...       0.0000
  Solh                                            ...       0.0000
Radii:
  Scheme                                          ... Element-dependent radii
  Radius for C  used is    3.4960 Bohr (=   1.8500 Ang.)
  Radius for O  used is    4.0969 Bohr (=   2.1680 Ang.)
  Radius for F  used is    3.2692 Bohr (=   1.7300 Ang.)
Calculating surface                               ...        done! (  0.0s)
Cavity surface points                             ...         2180
Cavity Volume                                     ...    2189.1604
Cavity Surface-area                               ...    1141.1731
Calculating surface distance matrix               ...        done! (  0.1s)
Performing Cholesky decomposition & store         ...        done! (  0.1s)
Overall time for CPCM initialization              ...                 0.1s

----------------------------------------D-I-I-S--------------------------------------------
Iteration    Energy (Eh)           Delta-E    RMSDP     MaxDP     DIISErr   Damp  Time(sec)
-------------------------------------------------------------------------------------------
               ***  Starting incremental Fock matrix formation  ***
    1    -1952.3779465573506968     0.00e+00  7.17e-04  1.07e-01  1.83e-01  0.850   8.1
Warning: op=0 Small HOMO/LUMO gap (   0.019) - skipping pre-diagonalization
         Will do a full diagonalization
    2    -1952.5998304543509221    -2.22e-01  8.32e-04  1.29e-01  1.16e-01  0.850   5.8
                               ***Turning on AO-DIIS***
    3    -1952.6976874968277116    -9.79e-02  7.29e-04  1.24e-01  6.40e-02  0.850   5.1
    4    -1952.7445191030656133    -4.68e-02  4.41e-04  8.92e-02  4.26e-02  0.850   5.1
    5    -1952.7814027882504888    -3.69e-02  3.11e-04  5.25e-02  3.49e-02  0.850   5.0
    6    -1952.8162886284080741    -3.49e-02  2.55e-04  4.13e-02  3.22e-02  0.850   5.0
    7    -1952.8479552040189446    -3.17e-02  2.16e-04  4.12e-02  2.99e-02  0.850   4.8
    8    -1952.8763341331350603    -2.84e-02  1.23e-03  2.51e-01  2.65e-02  0.000   4.7
    9    -1953.0475360746249862    -1.71e-01  1.43e-04  2.18e-02  1.15e-02  0.000   5.1
   10    -1953.0502707991918214    -2.73e-03  1.32e-04  3.05e-02  3.84e-03  0.000   4.7
   11    -1953.0514558165941708    -1.19e-03  1.20e-04  2.80e-02  1.95e-03  0.000   4.6
   12    -1953.0520255826304492    -5.70e-04  7.26e-05  1.54e-02  1.19e-03  0.000   4.6
                              *** Initializing SOSCF ***
---------------------------------------S-O-S-C-F--------------------------------------
Iteration    Energy (Eh)           Delta-E    RMSDP     MaxDP     MaxGrad    Time(sec)
--------------------------------------------------------------------------------------
   13    -1953.0522798349675213    -2.54e-04  5.70e-05  1.38e-02  8.62e-04     4.9
               *** Restarting incremental Fock matrix formation ***
   14    -1953.0524061583764706    -1.26e-04  1.37e-04  3.26e-02  3.10e-03     8.1
   15    -1953.0525171810104439    -1.11e-04  6.17e-05  1.40e-02  4.76e-04     6.6
   16    -1953.0525224618495486    -5.28e-06  2.55e-05  5.69e-03  5.46e-04     6.5
   17    -1953.0525411167791390    -1.87e-05  9.33e-06  1.82e-03  1.59e-04     6.0
   18    -1953.0525408174917175     2.99e-07  5.47e-06  1.13e-03  2.49e-04     5.4
   19    -1953.0525425318373891    -1.71e-06  3.20e-06  5.03e-04  1.01e-04     5.3
   20    -1953.0525423168264751     2.15e-07  2.03e-06  3.95e-04  9.99e-05     5.0
   21    -1953.0525427300744923    -4.13e-07  7.48e-07  1.69e-04  1.16e-05     4.9
   22    -1953.0525427146176298     1.55e-08  1.65e-07  2.51e-05  1.65e-05     4.1
   23    -1953.0525427066841075     7.93e-09  2.08e-07  4.75e-05  1.64e-06     3.7
                 **** Energy Check signals convergence ****

               *****************************************************
               *                     SUCCESS                       *
               *           SCF CONVERGED AFTER  23 CYCLES          *
               *****************************************************

Recomputing exchange energy using gridx3       ... done (    9.806 sec)
Old exchange energy                            :    -20.939025457 Eh
New exchange energy                            :    -20.939063437 Eh
Exchange energy change after final integration :     -0.000037980 Eh
Total energy after final integration           :  -1953.052580687 Eh

SMD CDS free energy correction energy :                 3.36224     Kcal/mol
Total Energy after SMD CDS correction =             -1953.047222621 Eh
             **** ENERGY FILE WAS UPDATED (rf_mecn_freq_r2s_D_A.en.tmp) ****

----------------
TOTAL SCF ENERGY
----------------

Total Energy       :      -1953.04722262120958 Eh          -53145.11677 eV

Components:
Nuclear Repulsion  :       2822.57302510515183 Eh           76806.11676 eV
Electronic Energy  :      -4775.39191986873811 Eh         -129945.02042 eV
One Electron Energy:      -8391.00135989039336 Eh         -228330.75511 eV
Two Electron Energy:       3615.60944002165479 Eh           98385.73470 eV
CPCM Dielectric    :         -0.23364794309706 Eh              -6.35788 eV
SMD CDS (Gcds)     :          0.00535806537623 Eh               0.14580 eV

Virial components:
Potential Energy   :      -3899.66428104448141 Eh         -106115.25988 eV
Kinetic Energy     :       1946.61705842327183 Eh           52970.14311 eV
Virial Ratio       :          2.00330325071904

DFT components:
N(Alpha)           :      101.000006133859 electrons
N(Beta)            :       99.999995344109 electrons
N(Total)           :      201.000001477968 electrons
E(X)               :     -189.498917899872 Eh       
E(C)               :       -7.008095518368 Eh       
E(XC)              :     -196.507013418239 Eh       

CPCM Solvation Model Properties:
Surface-charge          :          1.98907826938144
Corrected charge        :          2.00000000000000
Outlying charge corr.   :          0.00000643521551 Eh               0.00018 eV
Free-energy (cav+disp)  :          0.00535806537623 Eh               0.14580 eV

---------------
SCF CONVERGENCE
---------------

  Last Energy change         ...   -7.9335e-09  Tolerance :   1.0000e-08
  Last MAX-Density change    ...    4.7480e-05  Tolerance :   1.0000e-07
  Last RMS-Density change    ...    2.0820e-07  Tolerance :   5.0000e-09
  Last DIIS Error            ...    8.6232e-04  Tolerance :   5.0000e-07
  Last Orbital Gradient      ...    1.6429e-06  Tolerance :   1.0000e-05
  Last Orbital Rotation      ...    9.6195e-06  Tolerance :   1.0000e-05


----------------------
UHF SPIN CONTAMINATION
----------------------

Warning: in a DFT calculation there is little theoretical justification to 
         calculate <S**2> as in Hartree-Fock theory. We will do it anyways
         but you should keep in mind that the values have only limited relevance

Expectation value of <S**2>     :     0.754678
Ideal value S*(S+1) for S=0.5   :     0.750000
Deviation                       :     0.004678

----------------
ORBITAL ENERGIES
----------------
                 SPIN UP ORBITALS
  NO   OCC          E(Eh)            E(eV) 
   0   1.0000     -24.705687      -672.2759 
   1   1.0000     -24.705654      -672.2750 
   2   1.0000     -24.696900      -672.0368 
   3   1.0000     -24.686662      -671.7582 
   4   1.0000     -24.686190      -671.7454 
   5   1.0000     -24.686078      -671.7423 
   6   1.0000     -24.683546      -671.6734 
   7   1.0000     -24.682213      -671.6372 
   8   1.0000     -24.679990      -671.5767 
   9   1.0000     -24.672472      -671.3721 
  10   1.0000     -24.672219      -671.3652 
  11   1.0000     -24.671057      -671.3336 
  12   1.0000     -24.671026      -671.3327 
  13   1.0000     -24.670625      -671.3218 
  14   1.0000     -24.669278      -671.2852 
  15   1.0000     -19.037604      -518.0395 
  16   1.0000     -19.036698      -518.0149 
  17   1.0000     -10.403135      -283.0837 
  18   1.0000     -10.330653      -281.1114 
  19   1.0000     -10.328274      -281.0466 
  20   1.0000     -10.324808      -280.9523 
  21   1.0000     -10.315203      -280.6910 
  22   1.0000     -10.314279      -280.6658 
  23   1.0000     -10.304600      -280.4024 
  24   1.0000     -10.221487      -278.1408 
  25   1.0000      -1.325345       -36.0645 
  26   1.0000      -1.280952       -34.8565 
  27   1.0000      -1.269801       -34.5530 
  28   1.0000      -1.261106       -34.3164 
  29   1.0000      -1.251183       -34.0464 
  30   1.0000      -1.248846       -33.9828 
  31   1.0000      -1.240763       -33.7629 
  32   1.0000      -1.238763       -33.7084 
  33   1.0000      -1.228106       -33.4185 
  34   1.0000      -1.217604       -33.1327 
  35   1.0000      -1.213780       -33.0286 
  36   1.0000      -1.206451       -32.8292 
  37   1.0000      -1.198559       -32.6144 
  38   1.0000      -1.193422       -32.4747 
  39   1.0000      -1.191291       -32.4167 
  40   1.0000      -1.016615       -27.6635 
  41   1.0000      -0.931150       -25.3379 
  42   1.0000      -0.788555       -21.4577 
  43   1.0000      -0.782042       -21.2804 
  44   1.0000      -0.752174       -20.4677 
  45   1.0000      -0.719286       -19.5728 
  46   1.0000      -0.679845       -18.4995 
  47   1.0000      -0.647632       -17.6230 
  48   1.0000      -0.624330       -16.9889 
  49   1.0000      -0.594208       -16.1692 
  50   1.0000      -0.592579       -16.1249 
  51   1.0000      -0.590855       -16.0780 
  52   1.0000      -0.578297       -15.7363 
  53   1.0000      -0.573101       -15.5949 
  54   1.0000      -0.570339       -15.5197 
  55   1.0000      -0.557800       -15.1785 
  56   1.0000      -0.554601       -15.0915 
  57   1.0000      -0.545879       -14.8541 
  58   1.0000      -0.543582       -14.7916 
  59   1.0000      -0.535965       -14.5843 
  60   1.0000      -0.529795       -14.4164 
  61   1.0000      -0.525680       -14.3045 
  62   1.0000      -0.519296       -14.1308 
  63   1.0000      -0.511246       -13.9117 
  64   1.0000      -0.462951       -12.5975 
  65   1.0000      -0.462781       -12.5929 
  66   1.0000      -0.456710       -12.4277 
  67   1.0000      -0.447330       -12.1725 
  68   1.0000      -0.444524       -12.0961 
  69   1.0000      -0.441872       -12.0240 
  70   1.0000      -0.437298       -11.8995 
  71   1.0000      -0.435248       -11.8437 
  72   1.0000      -0.431997       -11.7552 
  73   1.0000      -0.430976       -11.7275 
  74   1.0000      -0.428171       -11.6511 
  75   1.0000      -0.424771       -11.5586 
  76   1.0000      -0.421982       -11.4827 
  77   1.0000      -0.415641       -11.3102 
  78   1.0000      -0.414748       -11.2859 
  79   1.0000      -0.408994       -11.1293 
  80   1.0000      -0.403563       -10.9815 
  81   1.0000      -0.402355       -10.9486 
  82   1.0000      -0.401701       -10.9308 
  83   1.0000      -0.394206       -10.7269 
  84   1.0000      -0.392909       -10.6916 
  85   1.0000      -0.390905       -10.6371 
  86   1.0000      -0.387744       -10.5511 
  87   1.0000      -0.383162       -10.4264 
  88   1.0000      -0.381563       -10.3829 
  89   1.0000      -0.380861       -10.3637 
  90   1.0000      -0.377205       -10.2643 
  91   1.0000      -0.373276       -10.1574 
  92   1.0000      -0.365066        -9.9340 
  93   1.0000      -0.363624        -9.8947 
  94   1.0000      -0.353642        -9.6231 
  95   1.0000      -0.329966        -8.9788 
  96   1.0000      -0.298341        -8.1183 
  97   1.0000      -0.231194        -6.2911 
  98   1.0000      -0.215152        -5.8546 
  99   1.0000      -0.212615        -5.7856 
 100   1.0000      -0.066304        -1.8042 
 101   0.0000       0.023199         0.6313 
 102   0.0000       0.042620         1.1598 
 103   0.0000       0.056294         1.5318 
 104   0.0000       0.073525         2.0007 
 105   0.0000       0.100288         2.7290 
 106   0.0000       0.121564         3.3079 
 107   0.0000       0.128448         3.4953 
 108   0.0000       0.133861         3.6425 
 109   0.0000       0.147713         4.0195 
 110   0.0000       0.159067         4.3284 
 111   0.0000       0.164604         4.4791 

                 SPIN DOWN ORBITALS
  NO   OCC          E(Eh)            E(eV) 
   0   1.0000     -24.705646      -672.2748 
   1   1.0000     -24.705616      -672.2740 
   2   1.0000     -24.695385      -671.9956 
   3   1.0000     -24.686184      -671.7452 
   4   1.0000     -24.686000      -671.7402 
   5   1.0000     -24.685688      -671.7317 
   6   1.0000     -24.683377      -671.6688 
   7   1.0000     -24.681909      -671.6289 
   8   1.0000     -24.679625      -671.5667 
   9   1.0000     -24.671732      -671.3520 
  10   1.0000     -24.671600      -671.3484 
  11   1.0000     -24.670566      -671.3202 
  12   1.0000     -24.670367      -671.3148 
  13   1.0000     -24.670211      -671.3106 
  14   1.0000     -24.669183      -671.2826 
  15   1.0000     -19.037372      -518.0332 
  16   1.0000     -19.036496      -518.0094 
  17   1.0000     -10.401425      -283.0372 
  18   1.0000     -10.328052      -281.0406 
  19   1.0000     -10.327093      -281.0145 
  20   1.0000     -10.322526      -280.8902 
  21   1.0000     -10.311323      -280.5854 
  22   1.0000     -10.310643      -280.5669 
  23   1.0000     -10.304067      -280.3879 
  24   1.0000     -10.221299      -278.1357 
  25   1.0000      -1.324165       -36.0324 
  26   1.0000      -1.279889       -34.8276 
  27   1.0000      -1.267990       -34.5038 
  28   1.0000      -1.259987       -34.2860 
  29   1.0000      -1.250749       -34.0346 
  30   1.0000      -1.247277       -33.9401 
  31   1.0000      -1.240626       -33.7591 
  32   1.0000      -1.236854       -33.6565 
  33   1.0000      -1.225760       -33.3546 
  34   1.0000      -1.217102       -33.1190 
  35   1.0000      -1.212851       -33.0034 
  36   1.0000      -1.205834       -32.8124 
  37   1.0000      -1.197404       -32.5830 
  38   1.0000      -1.193219       -32.4691 
  39   1.0000      -1.190037       -32.3826 
  40   1.0000      -1.016207       -27.6524 
  41   1.0000      -0.930754       -25.3271 
  42   1.0000      -0.778236       -21.1769 
  43   1.0000      -0.773400       -21.0453 
  44   1.0000      -0.742518       -20.2049 
  45   1.0000      -0.711833       -19.3699 
  46   1.0000      -0.675485       -18.3809 
  47   1.0000      -0.644905       -17.5487 
  48   1.0000      -0.621805       -16.9202 
  49   1.0000      -0.593277       -16.1439 
  50   1.0000      -0.588769       -16.0212 
  51   1.0000      -0.586239       -15.9524 
  52   1.0000      -0.575967       -15.6729 
  53   1.0000      -0.569741       -15.5034 
  54   1.0000      -0.568355       -15.4657 
  55   1.0000      -0.556274       -15.1370 
  56   1.0000      -0.550187       -14.9714 
  57   1.0000      -0.544005       -14.8031 
  58   1.0000      -0.539797       -14.6886 
  59   1.0000      -0.534461       -14.5434 
  60   1.0000      -0.528728       -14.3874 
  61   1.0000      -0.520478       -14.1629 
  62   1.0000      -0.516613       -14.0578 
  63   1.0000      -0.510284       -13.8855 
  64   1.0000      -0.462314       -12.5802 
  65   1.0000      -0.460661       -12.5352 
  66   1.0000      -0.456001       -12.4084 
  67   1.0000      -0.446786       -12.1577 
  68   1.0000      -0.443844       -12.0776 
  69   1.0000      -0.441539       -12.0149 
  70   1.0000      -0.436836       -11.8869 
  71   1.0000      -0.434397       -11.8205 
  72   1.0000      -0.430909       -11.7256 
  73   1.0000      -0.430116       -11.7040 
  74   1.0000      -0.427598       -11.6355 
  75   1.0000      -0.423757       -11.5310 
  76   1.0000      -0.421215       -11.4618 
  77   1.0000      -0.414475       -11.2784 
  78   1.0000      -0.413599       -11.2546 
  79   1.0000      -0.408453       -11.1146 
  80   1.0000      -0.402305       -10.9473 
  81   1.0000      -0.401371       -10.9219 
  82   1.0000      -0.401148       -10.9158 
  83   1.0000      -0.393114       -10.6972 
  84   1.0000      -0.391549       -10.6546 
  85   1.0000      -0.390306       -10.6208 
  86   1.0000      -0.385816       -10.4986 
  87   1.0000      -0.380956       -10.3663 
  88   1.0000      -0.378834       -10.3086 
  89   1.0000      -0.377475       -10.2716 
  90   1.0000      -0.375961       -10.2304 
  91   1.0000      -0.369377       -10.0513 
  92   1.0000      -0.362978        -9.8771 
  93   1.0000      -0.357299        -9.7226 
  94   1.0000      -0.347420        -9.4538 
  95   1.0000      -0.325430        -8.8554 
  96   1.0000      -0.295654        -8.0452 
  97   1.0000      -0.230258        -6.2656 
  98   1.0000      -0.214141        -5.8271 
  99   1.0000      -0.212317        -5.7774 
 100   0.0000      -0.008336        -0.2268 
 101   0.0000       0.032755         0.8913 
 102   0.0000       0.050343         1.3699 
 103   0.0000       0.064326         1.7504 
 104   0.0000       0.082940         2.2569 
 105   0.0000       0.107849         2.9347 
 106   0.0000       0.127147         3.4599 
 107   0.0000       0.133354         3.6287 
 108   0.0000       0.135427         3.6851 
 109   0.0000       0.154971         4.2170 
 110   0.0000       0.162788         4.4297 
*Only the first 10 virtual orbitals were printed.

                    ********************************
                    * MULLIKEN POPULATION ANALYSIS *
                    ********************************

--------------------------------------------
MULLIKEN ATOMIC CHARGES AND SPIN POPULATIONS
--------------------------------------------
   0 C :    0.211554    0.007664
   1 O :   -0.530798    0.006109
   2 O :   -0.538093    0.005636
   3 C :    0.352741    0.024092
   4 C :    0.260874    0.059578
   5 C :    0.281617    0.136429
   6 C :    0.242914    0.241674
   7 C :    0.210000    0.254438
   8 C :    0.283746    0.143274
   9 C :    0.439332    0.079705
  10 F :   -0.222483    0.000606
  11 F :   -0.226560    0.000460
  12 F :   -0.206736    0.001025
  13 F :   -0.210400    0.000303
  14 F :   -0.215982    0.001412
  15 F :   -0.216967    0.000757
  16 F :   -0.229008    0.002954
  17 F :   -0.233989    0.003400
  18 F :   -0.236374    0.004949
  19 F :   -0.232221    0.004370
  20 F :   -0.213534    0.003348
  21 F :   -0.212763    0.003196
  22 F :   -0.181455   -0.001014
  23 F :   -0.193873    0.016682
  24 F :   -0.181545   -0.001047
Sum of atomic charges         :   -2.0000000
Sum of atomic spin populations:    1.0000000

-----------------------------------------------------
MULLIKEN REDUCED ORBITAL CHARGES AND SPIN POPULATIONS
-----------------------------------------------------
CHARGE
  0 C s       :     3.016786  s :     3.016786
      pz      :     0.797154  p :     2.508806
      px      :     0.882769
      py      :     0.828883
      dz2     :     0.066076  d :     0.238346
      dxz     :     0.046179
      dyz     :     0.046526
      dx2y2   :     0.038800
      dxy     :     0.040765
      f0      :     0.003445  f :     0.024509
      f+1     :     0.002790
      f-1     :     0.005646
      f+2     :     0.004633
      f-2     :     0.003530
      f+3     :     0.002176
      f-3     :     0.002289

  1 O s       :     3.797619  s :     3.797619
      pz      :     1.413772  p :     4.702470
      px      :     1.649398
      py      :     1.639299
      dz2     :     0.009611  d :     0.028878
      dxz     :     0.006998
      dyz     :     0.007187
      dx2y2   :     0.002224
      dxy     :     0.002858
      f0      :     0.000477  f :     0.001832
      f+1     :     0.000336
      f-1     :     0.000356
      f+2     :     0.000253
      f-2     :     0.000293
      f+3     :     0.000058
      f-3     :     0.000059

  2 O s       :     3.798060  s :     3.798060
      pz      :     1.592379  p :     4.709452
      px      :     1.676988
      py      :     1.440085
      dz2     :     0.005438  d :     0.028762
      dxz     :     0.003947
      dyz     :     0.007741
      dx2y2   :     0.006340
      dxy     :     0.005296
      f0      :     0.000168  f :     0.001819
      f+1     :     0.000103
      f-1     :     0.000422
      f+2     :     0.000353
      f-2     :     0.000339
      f+3     :     0.000192
      f-3     :     0.000242

  3 C s       :     3.098636  s :     3.098636
      pz      :     0.603869  p :     2.272941
      px      :     0.986134
      py      :     0.682938
      dz2     :     0.051372  d :     0.249726
      dxz     :     0.049534
      dyz     :     0.062060
      dx2y2   :     0.039097
      dxy     :     0.047662
      f0      :     0.003428  f :     0.025956
      f+1     :     0.004639
      f-1     :     0.007410
      f+2     :     0.002128
      f-2     :     0.002131
      f+3     :     0.003758
      f-3     :     0.002462

  4 C s       :     3.151358  s :     3.151358
      pz      :     0.574090  p :     2.286409
      px      :     0.966362
      py      :     0.745957
      dz2     :     0.068368  d :     0.274499
      dxz     :     0.054116
      dyz     :     0.054336
      dx2y2   :     0.046672
      dxy     :     0.051007
      f0      :     0.004539  f :     0.026859
      f+1     :     0.003986
      f-1     :     0.006133
      f+2     :     0.002890
      f-2     :     0.004188
      f+3     :     0.003050
      f-3     :     0.002073

  5 C s       :     3.129087  s :     3.129087
      pz      :     0.555209  p :     2.280072
      px      :     0.928326
      py      :     0.796537
      dz2     :     0.075350  d :     0.282980
      dxz     :     0.054146
      dyz     :     0.048921
      dx2y2   :     0.057038
      dxy     :     0.047525
      f0      :     0.005519  f :     0.026244
      f+1     :     0.003632
      f-1     :     0.004339
      f+2     :     0.003541
      f-2     :     0.004847
      f+3     :     0.002456
      f-3     :     0.001910

  6 C s       :     3.131199  s :     3.131199
      pz      :     0.547304  p :     2.312003
      px      :     0.910620
      py      :     0.854079
      dz2     :     0.075704  d :     0.288515
      dxz     :     0.051746
      dyz     :     0.045993
      dx2y2   :     0.069481
      dxy     :     0.045591
      f0      :     0.005366  f :     0.025368
      f+1     :     0.003601
      f-1     :     0.004155
      f+2     :     0.003404
      f-2     :     0.004615
      f+3     :     0.002346
      f-3     :     0.001881

  7 C s       :     3.146628  s :     3.146628
      pz      :     0.546898  p :     2.325679
      px      :     0.922462
      py      :     0.856319
      dz2     :     0.077069  d :     0.292519
      dxz     :     0.051472
      dyz     :     0.045572
      dx2y2   :     0.073654
      dxy     :     0.044752
      f0      :     0.005304  f :     0.025174
      f+1     :     0.003633
      f-1     :     0.004163
      f+2     :     0.003349
      f-2     :     0.004516
      f+3     :     0.002314
      f-3     :     0.001895

  8 C s       :     3.098356  s :     3.098356
      pz      :     0.555472  p :     2.307675
      px      :     0.938907
      py      :     0.813296
      dz2     :     0.077034  d :     0.284137
      dxz     :     0.053538
      dyz     :     0.048985
      dx2y2   :     0.058032
      dxy     :     0.046549
      f0      :     0.005619  f :     0.026087
      f+1     :     0.003651
      f-1     :     0.004201
      f+2     :     0.003514
      f-2     :     0.004901
      f+3     :     0.002246
      f-3     :     0.001955

  9 C s       :     3.045404  s :     3.045404
      pz      :     0.610061  p :     2.140314
      px      :     0.812695
      py      :     0.717558
      dz2     :     0.075983  d :     0.336101
      dxz     :     0.069129
      dyz     :     0.062788
      dx2y2   :     0.070833
      dxy     :     0.057369
      f0      :     0.008466  f :     0.038848
      f+1     :     0.004395
      f-1     :     0.004692
      f+2     :     0.004085
      f-2     :     0.008433
      f+3     :     0.005277
      f-3     :     0.003500

 10 F s       :     3.917488  s :     3.917488
      pz      :     1.841256  p :     5.288908
      px      :     1.909477
      py      :     1.538176
      dz2     :     0.001977  d :     0.015431
      dxz     :     0.000788
      dyz     :     0.004557
      dx2y2   :     0.004743
      dxy     :     0.003366
      f0      :     0.000070  f :     0.000656
      f+1     :     0.000005
      f-1     :     0.000109
      f+2     :     0.000159
      f-2     :     0.000058
      f+3     :     0.000118
      f-3     :     0.000137

 11 F s       :     3.919057  s :     3.919057
      pz      :     1.479979  p :     5.291489
      px      :     1.916636
      py      :     1.894874
      dz2     :     0.007937  d :     0.015358
      dxz     :     0.003747
      dyz     :     0.003223
      dx2y2   :     0.000190
      dxy     :     0.000260
      f0      :     0.000322  f :     0.000657
      f+1     :     0.000155
      f-1     :     0.000153
      f+2     :     0.000009
      f-2     :     0.000015
      f+3     :     0.000001
      f-3     :     0.000001

 12 F s       :     3.920624  s :     3.920624
      pz      :     1.735047  p :     5.269559
      px      :     1.912537
      py      :     1.621975
      dz2     :     0.002442  d :     0.015879
      dxz     :     0.001434
      dyz     :     0.006203
      dx2y2   :     0.003285
      dxy     :     0.002516
      f0      :     0.000074  f :     0.000674
      f+1     :     0.000010
      f-1     :     0.000167
      f+2     :     0.000191
      f-2     :     0.000095
      f+3     :     0.000065
      f-3     :     0.000072

 13 F s       :     3.923223  s :     3.923223
      pz      :     1.525075  p :     5.270623
      px      :     1.909927
      py      :     1.835621
      dz2     :     0.006520  d :     0.015884
      dxz     :     0.003314
      dyz     :     0.004610
      dx2y2   :     0.000709
      dxy     :     0.000731
      f0      :     0.000222  f :     0.000669
      f+1     :     0.000113
      f-1     :     0.000219
      f+2     :     0.000049
      f-2     :     0.000057
      f+3     :     0.000005
      f-3     :     0.000004

 14 F s       :     3.920983  s :     3.920983
      pz      :     1.645211  p :     5.278957
      px      :     1.915589
      py      :     1.718158
      dz2     :     0.003542  d :     0.015397
      dxz     :     0.002103
      dyz     :     0.006077
      dx2y2   :     0.001995
      dxy     :     0.001680
      f0      :     0.000090  f :     0.000645
      f+1     :     0.000036
      f-1     :     0.000223
      f+2     :     0.000141
      f-2     :     0.000097
      f+3     :     0.000028
      f-3     :     0.000030

 15 F s       :     3.922173  s :     3.922173
      pz      :     1.594611  p :     5.278772
      px      :     1.915811
      py      :     1.768350
      dz2     :     0.004598  d :     0.015381
      dxz     :     0.002512
      dyz     :     0.005612
      dx2y2   :     0.001418
      dxy     :     0.001241
      f0      :     0.000126  f :     0.000641
      f+1     :     0.000059
      f-1     :     0.000239
      f+2     :     0.000104
      f-2     :     0.000084
      f+3     :     0.000015
      f-3     :     0.000015

 16 F s       :     3.921047  s :     3.921047
      pz      :     1.615911  p :     5.292480
      px      :     1.919294
      py      :     1.757275
      dz2     :     0.004066  d :     0.014867
      dxz     :     0.002244
      dyz     :     0.005589
      dx2y2   :     0.001662
      dxy     :     0.001306
      f0      :     0.000105  f :     0.000613
      f+1     :     0.000047
      f-1     :     0.000227
      f+2     :     0.000114
      f-2     :     0.000083
      f+3     :     0.000017
      f-3     :     0.000020

 17 F s       :     3.921262  s :     3.921262
      pz      :     1.630843  p :     5.297698
      px      :     1.919795
      py      :     1.747059
      dz2     :     0.003698  d :     0.014438
      dxz     :     0.002095
      dyz     :     0.005543
      dx2y2   :     0.001742
      dxy     :     0.001361
      f0      :     0.000093  f :     0.000591
      f+1     :     0.000041
      f-1     :     0.000216
      f+2     :     0.000117
      f-2     :     0.000084
      f+3     :     0.000019
      f-3     :     0.000022

 18 F s       :     3.922002  s :     3.922002
      pz      :     1.632051  p :     5.299458
      px      :     1.920622
      py      :     1.746786
      dz2     :     0.003647  d :     0.014330
      dxz     :     0.002052
      dyz     :     0.005520
      dx2y2   :     0.001765
      dxy     :     0.001346
      f0      :     0.000090  f :     0.000583
      f+1     :     0.000039
      f-1     :     0.000213
      f+2     :     0.000117
      f-2     :     0.000082
      f+3     :     0.000019
      f-3     :     0.000022

 19 F s       :     3.922120  s :     3.922120
      pz      :     1.613320  p :     5.294866
      px      :     1.920037
      py      :     1.761509
      dz2     :     0.004082  d :     0.014637
      dxz     :     0.002225
      dyz     :     0.005463
      dx2y2   :     0.001618
      dxy     :     0.001250
      f0      :     0.000105  f :     0.000598
      f+1     :     0.000047
      f-1     :     0.000223
      f+2     :     0.000109
      f-2     :     0.000080
      f+3     :     0.000016
      f-3     :     0.000019

 20 F s       :     3.921759  s :     3.921759
      pz      :     1.622112  p :     5.275948
      px      :     1.915311
      py      :     1.738525
      dz2     :     0.003885  d :     0.015195
      dxz     :     0.002187
      dyz     :     0.005892
      dx2y2   :     0.001748
      dxy     :     0.001482
      f0      :     0.000099  f :     0.000633
      f+1     :     0.000042
      f-1     :     0.000230
      f+2     :     0.000126
      f-2     :     0.000091
      f+3     :     0.000022
      f-3     :     0.000023

 21 F s       :     3.921951  s :     3.921951
      pz      :     1.606499  p :     5.274918
      px      :     1.914942
      py      :     1.753476
      dz2     :     0.004228  d :     0.015258
      dxz     :     0.002328
      dyz     :     0.005764
      dx2y2   :     0.001574
      dxy     :     0.001363
      f0      :     0.000111  f :     0.000636
      f+1     :     0.000050
      f-1     :     0.000235
      f+2     :     0.000115
      f-2     :     0.000088
      f+3     :     0.000019
      f-3     :     0.000019

 22 F s       :     3.920214  s :     3.920214
      pz      :     1.616080  p :     5.243809
      px      :     1.893497
      py      :     1.734232
      dz2     :     0.004456  d :     0.016685
      dxz     :     0.002414
      dyz     :     0.006473
      dx2y2   :     0.001734
      dxy     :     0.001608
      f0      :     0.000123  f :     0.000746
      f+1     :     0.000054
      f-1     :     0.000265
      f+2     :     0.000143
      f-2     :     0.000108
      f+3     :     0.000028
      f-3     :     0.000025

 23 F s       :     3.918215  s :     3.918215
      pz      :     1.902742  p :     5.259412
      px      :     1.618177
      py      :     1.738492
      dz2     :     0.002273  d :     0.015570
      dxz     :     0.001738
      dyz     :     0.001428
      dx2y2   :     0.003752
      dxy     :     0.006379
      f0      :     0.000054  f :     0.000676
      f+1     :     0.000087
      f-1     :     0.000062
      f+2     :     0.000008
      f-2     :     0.000089
      f+3     :     0.000170
      f-3     :     0.000206

 24 F s       :     3.920254  s :     3.920254
      pz      :     1.597743  p :     5.243870
      px      :     1.895736
      py      :     1.750391
      dz2     :     0.004845  d :     0.016676
      dxz     :     0.002525
      dyz     :     0.006345
      dx2y2   :     0.001527
      dxy     :     0.001435
      f0      :     0.000137  f :     0.000745
      f+1     :     0.000061
      f-1     :     0.000273
      f+2     :     0.000131
      f-2     :     0.000101
      f+3     :     0.000023
      f-3     :     0.000020


SPIN
  0 C s       :     0.002376  s :     0.002376
      pz      :     0.002104  p :     0.004463
      px      :    -0.001671
      py      :     0.004030
      dz2     :    -0.000009  d :     0.000800
      dxz     :    -0.000044
      dyz     :     0.000201
      dx2y2   :     0.000514
      dxy     :     0.000138
      f0      :     0.000005  f :     0.000025
      f+1     :    -0.000003
      f-1     :    -0.000025
      f+2     :     0.000014
      f-2     :    -0.000011
      f+3     :     0.000036
      f-3     :     0.000010

  1 O s       :     0.000202  s :     0.000202
      pz      :     0.002967  p :     0.005893
      px      :    -0.001213
      py      :     0.004139
      dz2     :    -0.000015  d :     0.000015
      dxz     :     0.000000
      dyz     :     0.000025
      dx2y2   :     0.000003
      dxy     :     0.000003
      f0      :     0.000000  f :    -0.000000
      f+1     :     0.000001
      f-1     :    -0.000001
      f+2     :    -0.000000
      f-2     :    -0.000001
      f+3     :    -0.000000
      f-3     :    -0.000000

  2 O s       :     0.000402  s :     0.000402
      pz      :     0.001453  p :     0.005223
      px      :    -0.000113
      py      :     0.003883
      dz2     :     0.000002  d :     0.000014
      dxz     :    -0.000003
      dyz     :     0.000011
      dx2y2   :    -0.000004
      dxy     :     0.000008
      f0      :    -0.000000  f :    -0.000002
      f+1     :     0.000000
      f-1     :    -0.000001
      f+2     :    -0.000001
      f-2     :    -0.000001
      f+3     :     0.000001
      f-3     :     0.000000

  3 C s       :    -0.005875  s :    -0.005875
      pz      :     0.000751  p :     0.024437
      px      :     0.005278
      py      :     0.018408
      dz2     :     0.000801  d :     0.005452
      dxz     :    -0.000093
      dyz     :     0.000024
      dx2y2   :     0.004665
      dxy     :     0.000055
      f0      :    -0.000017  f :     0.000078
      f+1     :     0.000010
      f-1     :    -0.000000
      f+2     :     0.000031
      f-2     :     0.000010
      f+3     :     0.000073
      f-3     :    -0.000029

  4 C s       :    -0.014459  s :    -0.014459
      pz      :     0.001803  p :     0.061256
      px      :     0.001077
      py      :     0.058376
      dz2     :     0.002402  d :     0.012707
      dxz     :    -0.000137
      dyz     :     0.000027
      dx2y2   :     0.009508
      dxy     :     0.000906
      f0      :    -0.000020  f :     0.000074
      f+1     :     0.000037
      f-1     :    -0.000010
      f+2     :     0.000039
      f-2     :     0.000004
      f+3     :     0.000116
      f-3     :    -0.000092

  5 C s       :    -0.031130  s :    -0.031130
      pz      :     0.003566  p :     0.141284
      px      :    -0.007391
      py      :     0.145109
      dz2     :     0.005772  d :     0.026382
      dxz     :    -0.000548
      dyz     :    -0.000232
      dx2y2   :     0.021306
      dxy     :     0.000083
      f0      :    -0.000007  f :    -0.000108
      f+1     :     0.000100
      f-1     :    -0.000070
      f+2     :     0.000047
      f-2     :     0.000005
      f+3     :     0.000058
      f-3     :    -0.000240

  6 C s       :    -0.029382  s :    -0.029382
      pz      :     0.005079  p :     0.230566
      px      :    -0.011833
      py      :     0.237321
      dz2     :     0.009008  d :     0.040950
      dxz     :    -0.000953
      dyz     :    -0.000555
      dx2y2   :     0.032413
      dxy     :     0.001036
      f0      :    -0.000018  f :    -0.000460
      f+1     :     0.000150
      f-1     :    -0.000136
      f+2     :     0.000073
      f-2     :    -0.000008
      f+3     :    -0.000115
      f-3     :    -0.000406

  7 C s       :    -0.021200  s :    -0.021200
      pz      :     0.005041  p :     0.230512
      px      :    -0.016601
      py      :     0.242072
      dz2     :     0.010180  d :     0.045674
      dxz     :    -0.001032
      dyz     :    -0.000683
      dx2y2   :     0.036400
      dxy     :     0.000811
      f0      :    -0.000023  f :    -0.000549
      f+1     :     0.000161
      f-1     :    -0.000143
      f+2     :     0.000071
      f-2     :    -0.000013
      f+3     :    -0.000151
      f-3     :    -0.000451

  8 C s       :    -0.028686  s :    -0.028686
      pz      :     0.002873  p :     0.139627
      px      :    -0.007379
      py      :     0.144133
      dz2     :     0.006927  d :     0.032484
      dxz     :    -0.000662
      dyz     :    -0.000349
      dx2y2   :     0.026553
      dxy     :     0.000015
      f0      :    -0.000009  f :    -0.000152
      f+1     :     0.000132
      f-1     :    -0.000051
      f+2     :     0.000042
      f-2     :     0.000005
      f+3     :     0.000034
      f-3     :    -0.000306

  9 C s       :     0.017569  s :     0.017569
      pz      :     0.004233  p :     0.051549
      px      :    -0.010743
      py      :     0.058059
      dz2     :     0.002142  d :     0.010335
      dxz     :    -0.000245
      dyz     :    -0.000025
      dx2y2   :     0.005239
      dxy     :     0.003224
[...]
 19:    206.08   0.001025    5.18  0.001552  ( 0.008131  0.004372  0.038294)
 20:    213.31   0.000085    0.43  0.000125  (-0.009985 -0.004964 -0.000661)
 21:    230.38   0.000789    3.99  0.001069  ( 0.024899  0.003753  0.020843)
 22:    236.63   0.021742  109.88  0.028673  ( 0.169306  0.002821 -0.000510)
 23:    247.51   0.000021    0.11  0.000026  (-0.004342  0.002354  0.001425)
 24:    253.56   0.000103    0.52  0.000126  (-0.010004  0.000395  0.005121)
 25:    262.13   0.000028    0.14  0.000034  (-0.004164 -0.000721 -0.003982)
 26:    269.95   0.000316    1.60  0.000366  ( 0.015311  0.002318 -0.011227)
 27:    321.34   0.003126   15.80  0.003036  ( 0.054907  0.004162 -0.001910)
 28:    327.37   0.000802    4.05  0.000764  ( 0.027635 -0.000512  0.000695)
 29:    328.23   0.012367   62.50  0.011758  (-0.108432  0.000247 -0.000009)
 30:    332.79   0.000020    0.10  0.000019  ( 0.000510 -0.004333  0.000131)
 31:    342.01   0.005678   28.69  0.005181  ( 0.071438 -0.008526  0.002211)
 32:    352.02   0.004888   24.70  0.004333  ( 0.065772 -0.000112 -0.002711)
 33:    366.00   0.000033    0.17  0.000028  ( 0.004703  0.000121 -0.002495)
 34:    370.30   0.000344    1.74  0.000290  (-0.010858  0.004138 -0.012435)
 35:    379.75   0.000298    1.50  0.000245  ( 0.013563 -0.007058  0.003305)
 36:    424.52   0.000019    0.10  0.000014  ( 0.003355  0.000498  0.001681)
 37:    467.18   0.000449    2.27  0.000300  (-0.011206 -0.012196 -0.005054)
 38:    475.14   0.000370    1.87  0.000243  (-0.005733 -0.003551  0.014048)
 39:    513.26   0.003589   18.14  0.002182  ( 0.046145 -0.004875  0.005389)
 40:    521.09   0.000081    0.41  0.000049  ( 0.004646  0.000580 -0.005183)
 41:    537.32   0.002635   13.32  0.001530  (-0.023802 -0.027309  0.014762)
 42:    555.26   0.001088    5.50  0.000612  ( 0.023329  0.007725  0.002796)
 43:    571.57   0.005286   26.71  0.002886  (-0.050394  0.017351 -0.006727)
 44:    582.67   0.003492   17.65  0.001870  (-0.037378 -0.017355  0.013112)
 45:    601.13   0.001027    5.19  0.000533  (-0.021872 -0.002557 -0.006961)
 46:    612.43   0.002438   12.32  0.001242  ( 0.033266  0.009171  0.007173)
 47:    625.99   0.015953   80.62  0.007953  ( 0.088702 -0.008856  0.002566)
 48:    643.99   0.076272  385.45  0.036959  ( 0.192080  0.007774 -0.002049)
 49:    685.08   0.057710  291.64  0.026287  ( 0.161999 -0.004780 -0.004582)
 50:    689.73   0.011512   58.18  0.005208  (-0.071505  0.008130 -0.005417)
 51:    737.37   0.011501   58.12  0.004867  (-0.069492  0.005938  0.001712)
 52:    750.80   0.025463  128.68  0.010583  ( 0.099013 -0.027894 -0.001385)
 53:    803.65   0.030703  155.16  0.011922  (-0.092331 -0.046441  0.035222)
 54:    838.59   0.043343  219.04  0.016129  (-0.126392  0.012368  0.001189)
 55:    881.86   0.005097   25.76  0.001804  ( 0.039324 -0.006328  0.014739)
 56:    886.63   0.033966  171.65  0.011955  (-0.108346  0.014194  0.003831)
 57:    963.41   0.080878  408.72  0.026198  ( 0.135359  0.053204 -0.071029)
 58:    984.33   0.022922  115.84  0.007267  ( 0.082120  0.016972 -0.015341)
 59:    996.52   0.083081  419.86  0.026017  ( 0.146567  0.066236  0.012171)
 60:   1017.44   0.228643  1155.47  0.070128  (-0.229669  0.128891 -0.027691)
 61:   1025.14   0.015152   76.57  0.004612  ( 0.015171  0.023335  0.061950)
 62:   1028.78   0.038195  193.02  0.011586  ( 0.022187 -0.006581 -0.105121)
 63:   1052.02   0.091964  464.75  0.027279  ( 0.079335 -0.068552 -0.127617)
 64:   1056.62   0.209826  1060.37  0.061971  (-0.187017  0.144247 -0.078664)
 65:   1088.25   0.046995  237.49  0.013476  ( 0.110900  0.000627  0.034307)
 66:   1092.43   0.122581  619.47  0.035017  (-0.018301 -0.118504 -0.143660)
 67:   1109.92   0.096628  488.32  0.027168  ( 0.019104  0.046719 -0.156908)
 68:   1124.16   0.043164  218.13  0.011982  (-0.043282  0.100366  0.005948)
 69:   1154.68   0.170193  860.09  0.045996  (-0.212036 -0.031450  0.006915)
 70:   1159.08   0.113336  572.75  0.030514  (-0.013464 -0.004062  0.174115)
 71:   1175.14   0.174227  880.47  0.046267  (-0.208741 -0.047481 -0.020963)
 72:   1283.87   0.144435  729.91  0.035107  ( 0.181525  0.043210 -0.016987)
 73:   1381.93   0.116791  590.22  0.026373  (-0.159613 -0.021757  0.020584)
 74:   1735.53   0.160576  811.49  0.028873  ( 0.008081 -0.106603 -0.132074)

* The epsilon (eps) is given for a Dirac delta lineshape.
** The dipole moment derivative (T) already includes vibrational overlap.

The first frequency considered to be a vibration is 6
The total number of vibrations considered is 69


--------------------------
THERMOCHEMISTRY AT 298.15K
--------------------------

Temperature         ...   298.15 K
Pressure            ...     1.00 atm
Total Mass          ...   413.06 AMU
Quasi RRHO          ...     True
Cut-Off Frequency   ...     1.00 cm^-1

Throughout the following assumptions are being made:
  (1) The electronic state is orbitally nondegenerate
      but the spin degeneracy is treated
  (2) There are no thermally accessible electronically excited states
  (3) Hindered rotations indicated by low frequency modes are not
      treated as such but are treated as vibrations and this may
      cause some error
  (4) All equations used are the standard statistical mechanics
      equations for an ideal gas
  (5) All vibrations are strictly harmonic

freq.      22.84  E(vib)   ...       0.56 
freq.      34.18  E(vib)   ...       0.54 
freq.      36.30  E(vib)   ...       0.54 
freq.      40.39  E(vib)   ...       0.54 
freq.      47.35  E(vib)   ...       0.53 
freq.      59.19  E(vib)   ...       0.51 
freq.      63.58  E(vib)   ...       0.51 
freq.      72.69  E(vib)   ...       0.49 
freq.      96.93  E(vib)   ...       0.46 
freq.     103.00  E(vib)   ...       0.46 
freq.     129.61  E(vib)   ...       0.43 
freq.     161.67  E(vib)   ...       0.39 
freq.     183.15  E(vib)   ...       0.37 
freq.     206.08  E(vib)   ...       0.35 
freq.     213.31  E(vib)   ...       0.34 
freq.     230.38  E(vib)   ...       0.32 
freq.     236.63  E(vib)   ...       0.32 
freq.     247.51  E(vib)   ...       0.31 
freq.     253.56  E(vib)   ...       0.30 
freq.     262.13  E(vib)   ...       0.29 
freq.     269.95  E(vib)   ...       0.29 
freq.     321.34  E(vib)   ...       0.25 
freq.     327.37  E(vib)   ...       0.24 
freq.     328.23  E(vib)   ...       0.24 
freq.     332.79  E(vib)   ...       0.24 
freq.     342.01  E(vib)   ...       0.23 
freq.     352.02  E(vib)   ...       0.23 
freq.     366.00  E(vib)   ...       0.22 
freq.     370.30  E(vib)   ...       0.21 
freq.     379.75  E(vib)   ...       0.21 
freq.     424.52  E(vib)   ...       0.18 
freq.     467.18  E(vib)   ...       0.16 
freq.     475.14  E(vib)   ...       0.15 
freq.     513.26  E(vib)   ...       0.13 
freq.     521.09  E(vib)   ...       0.13 
freq.     537.32  E(vib)   ...       0.12 
freq.     555.26  E(vib)   ...       0.12 
freq.     571.57  E(vib)   ...       0.11 
freq.     582.67  E(vib)   ...       0.11 
freq.     601.13  E(vib)   ...       0.10 
freq.     612.43  E(vib)   ...       0.10 
freq.     625.99  E(vib)   ...       0.09 
freq.     643.99  E(vib)   ...       0.09 
freq.     685.08  E(vib)   ...       0.07 
freq.     689.73  E(vib)   ...       0.07 
freq.     737.37  E(vib)   ...       0.06 
freq.     750.80  E(vib)   ...       0.06 
freq.     803.65  E(vib)   ...       0.05 
freq.     838.59  E(vib)   ...       0.04 
freq.     881.86  E(vib)   ...       0.04 
freq.     886.63  E(vib)   ...       0.04 
freq.     963.41  E(vib)   ...       0.03 
freq.     984.33  E(vib)   ...       0.02 
freq.     996.52  E(vib)   ...       0.02 
freq.    1017.44  E(vib)   ...       0.02 
freq.    1025.14  E(vib)   ...       0.02 
freq.    1028.78  E(vib)   ...       0.02 
freq.    1052.02  E(vib)   ...       0.02 
freq.    1056.62  E(vib)   ...       0.02 
freq.    1088.25  E(vib)   ...       0.02 
freq.    1092.43  E(vib)   ...       0.02 
freq.    1109.92  E(vib)   ...       0.02 
freq.    1124.16  E(vib)   ...       0.01 
freq.    1154.68  E(vib)   ...       0.01 
freq.    1159.08  E(vib)   ...       0.01 
freq.    1175.14  E(vib)   ...       0.01 
freq.    1283.87  E(vib)   ...       0.01 
freq.    1381.93  E(vib)   ...       0.01 
freq.    1735.53  E(vib)   ...       0.00 

------------
INNER ENERGY
------------

The inner energy is: U= E(el) + E(ZPE) + E(vib) + E(rot) + E(trans)
    E(el)   - is the total energy from the electronic structure calculation
              = E(kin-el) + E(nuc-el) + E(el-el) + E(nuc-nuc)
    E(ZPE)  - the the zero temperature vibrational energy from the frequency calculation
    E(vib)  - the the finite temperature correction to E(ZPE) due to population
              of excited vibrational states
    E(rot)  - is the rotational thermal energy
    E(trans)- is the translational thermal energy

Summary of contributions to the inner energy U:
Electronic energy                ...  -1953.05539487 Eh
Zero point energy                ...      0.09095523 Eh      57.08 kcal/mol
Thermal vibrational correction   ...      0.02106923 Eh      13.22 kcal/mol
Thermal rotational correction    ...      0.00141627 Eh       0.89 kcal/mol
Thermal translational correction ...      0.00141627 Eh       0.89 kcal/mol
-----------------------------------------------------------------------
Total thermal energy                  -1952.94053787 Eh


Summary of corrections to the electronic energy:
(perhaps to be used in another calculation)
Total thermal correction                  0.02390177 Eh      15.00 kcal/mol
Non-thermal (ZPE) correction              0.09095523 Eh      57.08 kcal/mol
-----------------------------------------------------------------------
Total correction                          0.11485700 Eh      72.07 kcal/mol


--------
ENTHALPY
--------

The enthalpy is H = U + kB*T
                kB is Boltzmann's constant
Total thermal energy              ...  -1952.94053787 Eh 
Thermal Enthalpy correction       ...      0.00094421 Eh       0.59 kcal/mol
-----------------------------------------------------------------------
Total Enthalpy                    ...  -1952.93959366 Eh


Note: Only C1 symmetry has been detected, increase convergence thresholds 
      if your molecule has a higher symmetry. Symmetry factor of 1.0 is   
      used for the rotational entropy correction. 
 

Note: Rotational entropy computed according to Herzberg 
Infrared and Raman Spectra, Chapter V,1, Van Nostrand Reinhold, 1945 
Point Group:  C1, Symmetry Number:   1  
Rotational constants in cm-1:     0.021941     0.003421     0.003394 

Vibrational entropy computed according to the QRRHO of S. Grimme
Chem.Eur.J. 2012 18 9955 using a reference frequency of 100.0 cm-1


-------
ENTROPY
-------

The entropy contributions are T*S = T*(S(el)+S(vib)+S(rot)+S(trans))
     S(el)   - electronic entropy
     S(vib)  - vibrational entropy
     S(rot)  - rotational entropy
     S(trans)- translational entropy
The entropies will be listed as multiplied by the temperature to get
units of energy

Electronic entropy                ...      0.00065446 Eh      0.41 kcal/mol
Vibrational entropy               ...      0.03775689 Eh     23.69 kcal/mol
Rotational entropy                ...      0.01667859 Eh     10.47 kcal/mol
Translational entropy             ...      0.02088010 Eh     13.10 kcal/mol
-----------------------------------------------------------------------
Final entropy term                ...      0.07597003 Eh     47.67 kcal/mol

In case the symmetry of your molecule has not been determined correctly
or in case you have a reason to use a different symmetry number we print 
out the resulting rotational entropy values for sn=1,12:

 non-linear molecules -----------------------------------
|  sn= 1 | S(rot)=       0.01667859 Eh     10.47 kcal/mol|
|  sn= 2 | S(rot)=       0.01602413 Eh     10.06 kcal/mol|
|  sn= 3 | S(rot)=       0.01564130 Eh      9.82 kcal/mol|
|  sn= 4 | S(rot)=       0.01536967 Eh      9.64 kcal/mol|
|  sn= 5 | S(rot)=       0.01515899 Eh      9.51 kcal/mol|
|  sn= 6 | S(rot)=       0.01498684 Eh      9.40 kcal/mol|
|  sn= 7 | S(rot)=       0.01484130 Eh      9.31 kcal/mol|
|  sn= 8 | S(rot)=       0.01471522 Eh      9.23 kcal/mol|
|  sn= 9 | S(rot)=       0.01460401 Eh      9.16 kcal/mol|
|  sn=10 | S(rot)=       0.01450453 Eh      9.10 kcal/mol|
|  sn=11 | S(rot)=       0.01441454 Eh      9.05 kcal/mol|
|  sn=12 | S(rot)=       0.01433239 Eh      8.99 kcal/mol|
 linear molecules ---------------------------------------
|  Dinfh | S(rot)=       0.01069427 Eh      6.71 kcal/mol|
|  Cinfv | S(rot)=       0.01134872 Eh      7.12 kcal/mol|
 --------------------------------------------------------


-------------------
GIBBS FREE ENERGY
-------------------

The Gibbs free energy is G = H - T*S

Total enthalpy                    ...  -1952.93959366 Eh 
Total entropy correction          ...     -0.07597003 Eh    -47.67 kcal/mol
-----------------------------------------------------------------------
Final Gibbs free energy         ...  -1953.01556369 Eh

For completeness - the Gibbs free energy minus the electronic energy
G-E(el)                           ...      0.03983117 Eh     24.99 kcal/mol


Maximum memory used throughout the entire PROP-calculation: 563.4 MB

--------------------------------
SUGGESTED CITATIONS FOR THIS RUN
--------------------------------

Below you find a list of papers that are relevant to this ORCA run
We neither can nor want to force you to cite these papers, but we appreciate if you do
You receive ORCA, which is the product of decades of hard work by many enthusiastic individuals, for free
The only thing we kindly ask in return is that you cite our papers,
We deeply appreciate it, if you show your appreciation for ORCA by not just citing the generic ORCA reference.

Please note that relegating all ORCA citations to the supporting information does *not* help us.
SI sections are not indexed - citations you put there will not count into any citation statistics
But we need these citations in order to attract the funding resources that allow us to do what we are doing

Therefore, if you are a happy ORCA user, please consider citing a few of the papers listed below in the main body of your paper

In addition to the list printed below, the program has created the file rf_mecn_freq_r2s_D_A.bibtex that contains the list in bibtex format
You can import this file easily into all common literature databanks and citation aid programs


List of essential papers. We consider these as the minimum necessary citations

  1. Neese,F.
     Software update: the ORCA program system, version 5.0
     WIRES Comput. Molec. Sci., 2022 12(1)e1606
     doi.org/10.1002/wcms.1606

List of papers to cite with high priority. The work reported in these papers was absolutely
necessary for this run to complete.
Our perspective: the developers of density functionals and basis sets usually get cited in chemistry papers
Good! But without the algorithms to do something with them, the functionals or basis sets would not do anything.
Hence, in our opinion, the algorithm design and method developments papers are equally worthy of getting cited

  1. Neese,F.
     An improvement of the resolution of the identity approximation for the formation of the Coulomb matrix
     J. Comp. Chem., 2003 24(14)1740-1747
     doi.org/10.1002/jcc.10318
  2. Neese,F.; Wennmohs,F.; Hansen,A.; Becker,U.
     Efficient, approximate and parallel Hartree-Fock and hybrid DFT calculations. A 'chain-of-spheres' algorithm for the Hartree-Fock exchange
     Chem. Phys., 2009 356(1-3)98-109
     doi.org/10.1016/j.chemphys.2008.10.036
  3. Bykov,D.; Petrenko,T.; Izsak,R.; Kossmann,S.; Becker,U.; Valeev,E.; Neese,F.
     Efficient implementation of the analytic second derivatives of Hartree-Fock and hybrid DFT energies: a detailed analysis of different approximations
     Molec. Phys., 2015 113 1961-1977
     doi.org/10.1080/00268976.2015.1025114
  4. Garcia-Rates,M.; Neese,F.
     Efficient implementation of the analytical second derivatives of hartree-fock and hybrid DFT energies within the framework of the conductor-like polarizable continuum model
     J. Comput. Chem., 2019 40 1816-1828
     doi.org/10.1002/jcc.25833
  5. Garcia-Rates,M.; Neese,F.
     Effect of the Solute Cavity on the Solvation Energy and its Derivatives within the Framework of the Gaussian Charge Scheme
     J. Comput. Chem., 2020 41 922-939
     doi.org/10.1002/jcc.26139
  6. Helmich-Paris,B.; de Souza,B.; Neese,F.; Izsák,R.
     An improved chain of spheres for exchange algorithm
     J. Chem. Phys., 2021 155 104109
     doi.org/doi: 10.1063/5.0058766.
  7. Neese,F.
     The SHARK Integral Generation and Digestion System
     J. Comp. Chem., 2022  1-16
     doi.org/10.1002/jcc.26942
  8. Lehtola,S.; Steigemann,C.; Oliveira,M.; Marques,M.
     Recent developments in Libxc - A comprehensive library of functionals for density functional theory
     Software X, 2018 7 
     doi.org/10.1016/j.softx.2017.11.002
  9. Grimme,S.; Antony,J.; Ehrlich,S.; Krieg,H.
     A consistent and accurate ab initio parametrization of density functional dispersion correction (DFT-D) for the 94 elements H-Pu
     J. Chem. Phys., 2010 132 154104
     doi.org/10.1063/1.3382344
 10. Grimme,S.; Ehrlich,S.; Goerigk,L.
     Effect of the damping function in dispersion corrected density functional theory
     J. Comput. Chem., 2011 32(7)1456-1465
     doi.org/10.1002/jcc.21759
 11. Bursch,M.; Neugebauer,H.; Ehlert,S.; Grimme,S.
     Dispersion corrected r2SCAN based global hybrid functionals: r2SCANh, r2SCAN0, and r2SCAN50
     J. Phys. Chem., 2022 156(13)134105
     doi.org/10.1063/5.0086040

List of suggested additional citations. These are papers that are important in the 'surrounding' of 
of this run, or papers that preceded the highly important papers. If you like your results we are grateful for a citation.

  1. Izsak,R.; Neese,F.
     An overlap fitted chain of spheres exchange method
     J. Chem. Phys., 2011 135 144105
     doi.org/10.1063/1.3646921
  2. Izsak,R.; Hansen,A.; Neese,F.
     The resolution of identity and chain of spheres approximations for the LPNO-CCSD singles Fock term
     Molec. Phys., 2012 110 2413-2417
     doi.org/10.1080/00268976.2012.687466
  3. Neese,F.
     The ORCA program system
     WIRES Comput. Molec. Sci., 2012 2(1)73-78
     doi.org/10.1002/wcms.81
  4. Izsak,R.; Neese,F.; Klopper,W.
     Robust fitting techniques in the chain of spheres approximation to the Fock exchange: The role of the complementary space
     J. Chem. Phys., 2013 139 
     doi.org/10.1063/1.4819264
  5. Neese,F.
     Software update: the ORCA program system, version 4.0
     WIRES Comput. Molec. Sci., 2018 8(1)1-6
     doi.org/10.1002/wcms.1327
  6. Neese,F.; Wennmohs,F.; Becker,U.; Riplinger,C.
     The ORCA quantum chemistry program package
     J. Chem. Phys., 2020 152 Art. No. L224108
     doi.org/10.1063/5.0004608
  7. Wittmann,L.; Neugebauer,H.; Grimme,S.; Bursch,M.
     Dispersion-corrected r2SCAN based double-hybrid functionals
     J. Chem. Phys., 2023 159(22)224103
     doi.org/10.1063/5.0174988

List of optional additional citations

  1. Neese,F.
     Approximate second-order SCF convergence for spin unrestricted wavefunctions
     Chem. Phys. Lett., 2000 325(1-3)93-98
     doi.org/10.1016/s0009-2614(00)00662-x

Timings for individual modules:

Sum of individual times          ...     1581.404 sec (=  26.357 min)
Startup calculation              ...        4.394 sec (=   0.073 min)   0.3 %
SCF iterations                   ...      138.703 sec (=   2.312 min)   8.8 %
Property integrals               ...      407.879 sec (=   6.798 min)  25.8 %
SCF Response                     ...      744.910 sec (=  12.415 min)  47.1 %
Property calculations            ...      285.517 sec (=   4.759 min)  18.1 %
                             ****ORCA TERMINATED NORMALLY****
TOTAL RUN TIME: 0 days 0 hours 26 minutes 22 seconds 196 msec
