
                                 *****************
                                 * O   R   C   A *
                                 *****************

                                            #,                                       
                                            ###                                      
                                            ####                                     
                                            #####                                    
                                            ######                                   
                                           ########,                                 
                                     ,,################,,,,,                         
                               ,,#################################,,                 
                          ,,##########################################,,             
                       ,#########################################, ''#####,          
                    ,#############################################,,   '####,        
                  ,##################################################,,,,####,       
                ,###########''''           ''''###############################       
              ,#####''   ,,,,##########,,,,          '''####'''          '####       
            ,##' ,,,,###########################,,,                        '##       
           ' ,,###''''                  '''############,,,                           
         ,,##''                                '''############,,,,        ,,,,,,###''
      ,#''                                            '''#######################'''  
     '                                                          ''''####''''         
             ,#######,   #######,   ,#######,      ##                                
            ,#'     '#,  ##    ##  ,#'     '#,    #''#        ,####,   ,####,        
            ##       ##  ##   ,#'  ##            #'  '#       #'       #'  '#        
            ##       ##  #######   ##           ,######,      #####,   #    #        
            '#,     ,#'  ##    ##  '#,     ,#' ,#      #,     #,   #   #,  ,#        
             '#######'   ##     ##  '#######'  #'      '#     '####' # '####'        



                #########################################################
                #                        -***-                          #
                #          Department of theory and spectroscopy        #
                #                                                       #
                #                      Frank Neese                      #
                #                                                       #
                #     Directorship, Architecture, Infrastructure        #
                #                    SHARK, DRIVERS                     #
                #        Core code/Algorithms in most modules           #
                #                                                       #
                #        Max Planck Institute fuer Kohlenforschung      #
                #                Kaiser Wilhelm Platz 1                 #
                #                 D-45470 Muelheim/Ruhr                 #
                #                      Germany                          #
                #                                                       #
                #                  All rights reserved                  #
                #                        -***-                          #
                #########################################################


                         Program Version 6.0.1  -  RELEASE   -


 With contributions from (in alphabetic order):
[Max-Planck-Institut fuer Kohlenforschung]                               
  Daniel Aravena         : Magnetic Suceptibility                        
  Michael Atanasov       : Ab Initio Ligand Field Theory (pilot matlab implementation)
  Alexander A. Auer      : GIAO ZORA, VPT2 properties, NMR spectrum      
  Ute Becker             : All parallelization in ORCA, NUMFREQ, NUMCALC 
  Giovanni Bistoni       : ED, misc. LED, open-shell LED, HFLD           
  Martin Brehm           : Molecular dynamics                            
  Dmytro Bykov           : pre 5.0 version of the SCF Hessian            
  Marcos Casanova-Páez   : Triplet and SCS-CIS(D). UHF-(DLPNO)-IP/EA/STEOM-CCSD. UHF-CVS-IP/STEOM-CCSD   
  Vijay G. Chilkuri      : MRCI spin determinant printing, contributions to CSF-ICE 
  Pauline Colinet        : FMM embedding                                 
  Dipayan Datta          : RHF DLPNO-CCSD density                        
  Achintya Kumar Dutta   : EOM-CC, STEOM-CC                              
  Nicolas Foglia         : Exact transition moments, OPA infrastructure, MCD improvements    
  Dmitry Ganyushin       : Spin-Orbit,Spin-Spin,Magnetic field MRCI      
  Miquel Garcia-Rates    : C-PCM and meta-GGA Hessian, CCSD/C-PCM, Gaussian charge scheme 
  Tiago L. C. Gouveia    : GS-ROHF, GS-ROCIS                             
  Yang Guo               : DLPNO-NEVPT2, F12-NEVPT2, CIM, IAO-localization        
  Andreas Hansen         : Spin unrestricted coupled pair/coupled cluster methods 
  Ingolf Harden          : AUTO-CI MPn and infrastructure                
  Benjamin Helmich-Paris : MC-RPA, TRAH-(SCF,CASSCF), AVAS, COSX integrals, SCF dyn. polar. 
  Lee Huntington         : MR-EOM, pCC                                   
  Robert Izsak           : Overlap fitted RIJCOSX, COSX-SCS-MP3, EOM     
  Riya Kayal             : Wick's Theorem for AUTO-CI, AUTO-CI UHF-CCSDT 
  Emily Kempfer          : AUTO-CI, RHF CISDT and CCSDT                  
  Christian Kollmar      : KDIIS, OOCD, Brueckner-CCSD(T), CCSD density, CASPT2, CASPT2-K, improved NEVPT2 
  Axel Koslowski         : Symmetry handling                             
  Simone Kossmann        : meta-GGA functionals, TD-DFT gradient, OOMP2, (MP2 Hessian; deprecated post 5.0) 
  Lucas Lang             : DCDCAS                                        
  Marvin Lechner         : AUTO-CI (C++ implementation), FIC-MRCC        
  Spencer Leger          : CASSCF response                               
  Dagmar Lenk            : GEPOL surface, SMD, ORCA-2-JSON               
  Dimitrios Liakos       : Extrapolation schemes; Compound Job, initial MDCI parallelization 
  Dimitrios Manganas     : Further ROCIS development; embedding schemes. LFT, Crystal Embedding 
  Dimitrios Pantazis     : SARC Basis sets                               
  Anastasios Papadopoulos: AUTO-CI, single reference methods and gradients 
  Taras Petrenko         : pre 6.0 DFT Hessian and TD-DFT gradient, (ASA, deprecated), ECA, 1-Electron XAS/XES, NRVS 
  Peter Pinski           : DLPNO-MP2, DLPNO-MP2 Gradient                 
  Christoph Reimann      : Effective Core Potentials                     
  Marius Retegan         : Local ZFS, SOC                                
  Christoph Riplinger    : Optimizer, TS searches, QM/MM, DLPNO-CCSD(T), (RO)-DLPNO pert. Triples 
  Michael Roemelt        : Original ROCIS implementation                 
  Masaaki Saitow         : Open-shell DLPNO-CCSD energy and density      
  Barbara Sandhoefer     : DKH picture change effects                    
  Kantharuban Sivalingam : CASSCF convergence/infrastructure, NEVPT2 and variants, FIC-MRCI 
  Bernardo de Souza      : ESD, SOC TD-DFT                               
  Georgi L. Stoychev     : AutoAux, RI-MP2 NMR, DLPNO-MP2 response, X2C  
  Van Anh Tran           : RI-MP2 g-tensors                              
  Willem Van den Heuvel  : Paramagnetic NMR                              
  Zikuan Wang            : NOTCH, Electric field optimization            
  Frank Wennmohs         : Technical directorship and infrastructure     
  Hang Xu                : AUTO-CI-Response properties                   
                                                                         
[FACCTs GmbH]                                                            
  Markus Bursch, Miquel Garcia-Rates, Christoph Riplinger, Bernardo de Souza, Georgi L. Stoychev 
                                                                 
  APM, Basis sets (HGBS, AHGBS, def-TZVP (Ac-Lr), def2-XVPD (La-Lu)), CI-OPT, improved COSX, DLPNO-Multilevel,           
  DOCKER, DRACO, updates on ESD, GOAT, IRC, LR-CPCM, MBIS, meta-GGA TD-DFT gradient, ML-optimized integration grids, 
  MM, NACMEs, nearIR, NEB, NEB-TS, NL-DFT gradient (VV10), 2- and 3-layer-ONIOM, interface openCOSMO-RS, QMMM,   
  Crystal-QMMM, SF, symmetry and pop. for TD-DFT, r2SCAN hybrids, SOLVATOR                                   
                                                                         
[Other institutions]                                                     
  V. Asgeirsson          : NEB                                           
  Christoph Bannwarth    : sTDA-DFT, sTD-DFT, PBEh-3c, B97-3c, D3        
  Sebastian Ehlert       : rSCAN, r2SCAN, r2SCAN-3c, D4, dhf basis sets  
  Marvin Friede          : D4 for Fr, Ra, Ac-Lr                          
  Lars Goerigk           : TD-DFT with DH, B97 family of functionals     
  Stefan Grimme          : VdW corrections, initial TS optimization, DFT functionals, gCP, sTDA/sTD-DF 
  Waldemar Hujo          : DFT-NL                                        
  H. Jonsson             : NEB                                           
  Holger Kruse           : gCP                                           
  Marcel Mueller         : wB97X-3c, vDZP basis set                      
  Hagen Neugebauer       : wr2SCAN                                       
  Tobias Risthaus        : range-separated hybrid DFT                    
  Lukas Wittmann         : regularized MP2, r2SCAN double-hybrids, wr2SCAN        
                                                                         
We gratefully acknowledge several colleagues who have allowed us to      
interface, adapt or use parts of their codes:                            
  Ed Valeev, F. Pavosevic, A. Kumar             : LibInt (2-el integral package), F12 methods 
  Garnet Chan, S. Sharma, J. Yang, R. Olivares  : DMRG                   
  Ulf Ekstrom                                   : XCFun DFT Library      
  Mihaly Kallay                                 : mrcc  (arbitrary order and MRCC methods)
  Frank Weinhold                                : gennbo (NPA and NBO analysis)           
  Simon Mueller                                 : openCOSMO-RS                            
  Christopher J. Cramer and Donald G. Truhlar   : smd solvation model                     
  S Lehtola, MJT Oliveira, MAL Marques          : LibXC Library                           
  Liviu Ungur et al                             : ANISO software                          


 Your calculation uses the libint2 library for the computation of 2-el integrals
 For citations please refer to: http://libint.valeyev.net

 Your ORCA version has been built with support for libXC version: 6.2.2
 For citations please refer to: https://libxc.gitlab.io

 This ORCA versions uses:
   CBLAS   interface :  Fast vector & matrix operations
   LAPACKE interface :  Fast linear algebra routines
   SCALAPACK package :  Parallel linear algebra routines
   Shared memory     :  Shared parallel matrices
   BLAS/LAPACK       :  OpenBLAS 0.3.27  USE64BITINT DYNAMIC_ARCH NO_AFFINITY SkylakeX SINGLE_THREADED
        Core in use  :  SkylakeX
   Copyright (c) 2011-2014, The OpenBLAS Project


NOTE: MaxCore=8000 MB was set to SCF,MP2,MDCI,CIPSI,MRCI and CIS
      => If you want to overwrite this, your respective input block should be placed after the MaxCore statement
Your calculation utilizes the atom-pairwise dispersion correction
with the Becke-Johnson damping scheme (D3BJ)


Your calculation utilizes the SMD solvation module
Please cite in your paper:
A.V. Marenich, C.J. Cramer, D.G. Truhlar J. Phys. Chem. B, 113, (2009), 6378 

Warning: RI is on but no J-basis has been assigned. Assigning Def2/J (nothing to worry about!)
================================================================================

----- Orbital basis set information -----
Your calculation utilizes the basis: def2-TZVP
   F. Weigend and R. Ahlrichs, Phys. Chem. Chem. Phys. 7, 3297 (2005).

----- AuxJ basis set information -----
Your calculation utilizes the auxiliary basis: def2/J
   F. Weigend, Phys. Chem. Chem. Phys. 8, 1057 (2006).

================================================================================
                                        WARNINGS
                       Please study these warnings very carefully!
================================================================================


WARNING: your system is open-shell and RHF/RKS was chosen
  ===> : WILL SWITCH to UHF/UKS


================================================================================
                                       INPUT FILE
================================================================================
NAME = rf_mecn_freq_B3L_C6_P_B.inp
|  1> !B3LYP def2-TZVP freq d3 TightSCF SlowConv defgrid2
|  2>  
|  3> %pal
|  4> nprocs 20
|  5> end
|  6>  
|  7> %scf
|  8> MaxIter 1500
|  9> end
| 10>  
| 11> %maxcore 8000
| 12>  
| 13> !CPCM
| 14> %cpcm smd true
| 15> SMDsolvent "ACETONITRILE"
| 16> end
| 17>  
| 18> * xyz 0 2
| 19> 6        4.663148000     -0.317370000      0.104666000
| 20> 8        5.068100000     -1.183459000     -0.810531000
| 21> 8        5.285842000      0.593055000      0.569619000
| 22> 6        3.198726000     -0.601190000      0.540223000
| 23> 6        2.186735000      0.233165000     -0.308005000
| 24> 6        0.691273000     -0.199522000     -0.137850000
| 25> 6       -0.358839000      0.868118000     -0.602710000
| 26> 6       -1.751030000      0.318793000     -0.702224000
| 27> 6       -2.845989000      0.532479000      0.291340000
| 28> 6       -4.008098000     -0.501397000      0.183079000
| 29> 9        2.898404000     -1.913138000      0.410924000
| 30> 9        3.070129000     -0.257047000      1.836571000
| 31> 9        2.326692000      1.530170000      0.034505000
| 32> 9        2.520453000      0.098526000     -1.610135000
| 33> 9        0.489878000     -1.318830000     -0.865650000
| 34> 9        0.445720000     -0.481055000      1.157593000
| 35> 9       -0.347938000      1.896262000      0.274668000
| 36> 9        0.028327000      1.323529000     -1.821966000
| 37> 9       -2.043038000     -0.324647000     -1.816303000
| 38> 9       -3.404966000      1.771766000      0.160014000
| 39> 9       -2.346922000      0.456264000      1.550173000
| 40> 9       -3.529861000     -1.745443000      0.275460000
| 41> 9       -4.869464000     -0.297786000      1.181194000
| 42> 9       -4.658019000     -0.369908000     -0.974532000
| 43> 1        5.987058000     -0.974366000     -1.071823000
| 44> *
| 45> 
| 46>                          ****END OF INPUT****
================================================================================

                       ****************************
                       * Single Point Calculation *
                       ****************************

---------------------------------
CARTESIAN COORDINATES (ANGSTROEM)
---------------------------------
  C      4.663148   -0.317370    0.104666
  O      5.068100   -1.183459   -0.810531
  O      5.285842    0.593055    0.569619
  C      3.198726   -0.601190    0.540223
  C      2.186735    0.233165   -0.308005
  C      0.691273   -0.199522   -0.137850
  C     -0.358839    0.868118   -0.602710
  C     -1.751030    0.318793   -0.702224
  C     -2.845989    0.532479    0.291340
  C     -4.008098   -0.501397    0.183079
  F      2.898404   -1.913138    0.410924
  F      3.070129   -0.257047    1.836571
  F      2.326692    1.530170    0.034505
  F      2.520453    0.098526   -1.610135
  F      0.489878   -1.318830   -0.865650
  F      0.445720   -0.481055    1.157593
  F     -0.347938    1.896262    0.274668
  F      0.028327    1.323529   -1.821966
  F     -2.043038   -0.324647   -1.816303
  F     -3.404966    1.771766    0.160014
  F     -2.346922    0.456264    1.550173
  F     -3.529861   -1.745443    0.275460
  F     -4.869464   -0.297786    1.181194
  F     -4.658019   -0.369908   -0.974532
  H      5.987058   -0.974366   -1.071823

----------------------------
CARTESIAN COORDINATES (A.U.)
----------------------------
  NO LB      ZA    FRAG     MASS         X           Y           Z
   0 C     6.0000    0    12.011    8.812073   -0.599742    0.197790
   1 O     8.0000    0    15.999    9.577321   -2.236413   -1.531682
   2 O     8.0000    0    15.999    9.988794    1.120712    1.076424
   3 C     6.0000    0    12.011    6.044716   -1.136084    1.020874
   4 C     6.0000    0    12.011    4.132330    0.440618   -0.582045
   5 C     6.0000    0    12.011    1.306317   -0.377042   -0.260499
   6 C     6.0000    0    12.011   -0.678107    1.640505   -1.138957
   7 C     6.0000    0    12.011   -3.308967    0.602431   -1.327011
   8 C     6.0000    0    12.011   -5.378140    1.006239    0.550553
   9 C     6.0000    0    12.011   -7.574208   -0.947503    0.345969
  10 F     9.0000    0    18.998    5.477190   -3.615307    0.776534
  11 F     9.0000    0    18.998    5.801703   -0.485748    3.470616
  12 F     9.0000    0    18.998    4.396811    2.891602    0.065205
  13 F     9.0000    0    18.998    4.762966    0.186187   -3.042714
  14 F     9.0000    0    18.998    0.925735   -2.492228   -1.635841
  15 F     9.0000    0    18.998    0.842289   -0.909062    2.187534
  16 F     9.0000    0    18.998   -0.657508    3.583416    0.519047
  17 F     9.0000    0    18.998    0.053530    2.501107   -3.443017
  18 F     9.0000    0    18.998   -3.860782   -0.613494   -3.432315
  19 F     9.0000    0    18.998   -6.434453    3.348153    0.302383
  20 F     9.0000    0    18.998   -4.435040    0.862214    2.929402
  21 F     9.0000    0    18.998   -6.670471   -3.298409    0.520544
  22 F     9.0000    0    18.998   -9.201953   -0.562734    2.232133
  23 F     9.0000    0    18.998   -8.802380   -0.699025   -1.841599
  24 H     1.0000    0     1.008   11.313900   -1.841285   -2.025452

--------------------------------
INTERNAL COORDINATES (ANGSTROEM)
--------------------------------
 C      0   0   0     0.000000000000     0.00000000     0.00000000
 O      1   0   0     1.323511173747     0.00000000     0.00000000
 O      1   2   0     1.196997406209   127.38373671     0.00000000
 C      1   2   3     1.553961224334   111.26216016   179.37737704
 C      4   1   2     1.561974644509   111.14863926   267.26735975
 C      5   4   1     1.566070674471   114.33645293   168.30343885
 C      6   5   4     1.568019515741   114.78281970   161.80260666
 C      7   6   5     1.499952256674   113.07288796   167.66922352
 C      8   7   6     1.493909749742   125.71701187   102.54903361
 C      9   8   7     1.559204077527   113.90732447   198.80300514
 F      4   1   2     1.352079542700   111.08411003    28.58048125
 F      4   1   2     1.347401102108   108.23772112   147.69827067
 F      5   4   1     1.348748691185   107.97115515   290.69862685
 F      5   4   1     1.350939636233   108.06795334    47.70732320
 F      6   5   4     1.350223383329   108.23432977   282.16809256
 F      6   5   4     1.348232054265   109.63386563    40.37232288
 F      7   6   5     1.351662336318   108.66760215   289.10358229
 F      7   6   5     1.357896124162   107.67404808    47.01924481
 F      8   7   6     1.319263326218   116.10932920   277.36966006
 F      9   8   7     1.365845552460   111.45675761    77.80583137
 F      9   8   7     1.356295365547   109.84936308   319.50529511
 F     10   9   8     1.335999748296   110.23327181    55.18564011
 F     10   9   8     1.334032375358   109.15286108   174.57607768
 F     10   9   8     1.334072670690   110.97703851   294.28098831
 H      2   1   3     0.977996522324   109.41072668     0.00000000

---------------------------
INTERNAL COORDINATES (A.U.)
---------------------------
 C      0   0   0     0.000000000000     0.00000000     0.00000000
 O      1   0   0     2.501073653567     0.00000000     0.00000000
 O      1   2   0     2.261997280748   127.38373671     0.00000000
 C      1   2   3     2.936561136724   111.26216016   179.37737704
 C      4   1   2     2.951704306252   111.14863926   267.26735975
 C      5   4   1     2.959444681115   114.33645293   168.30343885
 C      6   5   4     2.963127457394   114.78281970   161.80260666
 C      7   6   5     2.834498979071   113.07288796   167.66922352
 C      8   7   6     2.823080295806   125.71701187   102.54903361
 C      9   8   7     2.946468693420   113.90732447   198.80300514
 F      4   1   2     2.555060046981   111.08411003    28.58048125
 F      4   1   2     2.546219075528   108.23772112   147.69827067
 F      5   4   1     2.548765649825   107.97115515   290.69862685
 F      5   4   1     2.552905935939   108.06795334    47.70732320
 F      6   5   4     2.551552414109   108.23432977   282.16809256
 F      6   5   4     2.547789347534   109.63386563    40.37232288
 F      7   6   5     2.554271641177   108.66760215   289.10358229
 F      7   6   5     2.566051792978   107.67404808    47.01924481
 F      8   7   6     2.493046385079   116.10932920   277.36966006
 F      9   8   7     2.581074035383   111.45675761    77.80583137
 F      9   8   7     2.563026797590   109.84936308   319.50529511
 F     10   9   8     2.524673639266   110.23327181    55.18564011
 F     10   9   8     2.520955843210   109.15286108   174.57607768
 F     10   9   8     2.521031990354   110.97703851   294.28098831
 H      2   1   3     1.848145587119   109.41072668     0.00000000

---------------------
BASIS SET INFORMATION
---------------------
There are 4 groups of distinct atoms

 Group   1 Type C   : 11s6p2d1f contracted to 5s3p2d1f pattern {62111/411/11/1}
 Group   2 Type O   : 11s6p2d1f contracted to 5s3p2d1f pattern {62111/411/11/1}
 Group   3 Type F   : 11s6p2d1f contracted to 5s3p2d1f pattern {62111/411/11/1}
 Group   4 Type H   : 5s1p contracted to 3s1p pattern {311/1}

Atom   0C    basis set group =>   1
Atom   1O    basis set group =>   2
Atom   2O    basis set group =>   2
Atom   3C    basis set group =>   1
Atom   4C    basis set group =>   1
Atom   5C    basis set group =>   1
Atom   6C    basis set group =>   1
Atom   7C    basis set group =>   1
Atom   8C    basis set group =>   1
Atom   9C    basis set group =>   1
Atom  10F    basis set group =>   3
Atom  11F    basis set group =>   3
Atom  12F    basis set group =>   3
Atom  13F    basis set group =>   3
Atom  14F    basis set group =>   3
Atom  15F    basis set group =>   3
Atom  16F    basis set group =>   3
Atom  17F    basis set group =>   3
Atom  18F    basis set group =>   3
Atom  19F    basis set group =>   3
Atom  20F    basis set group =>   3
Atom  21F    basis set group =>   3
Atom  22F    basis set group =>   3
Atom  23F    basis set group =>   3
Atom  24H    basis set group =>   4
---------------------------------
AUXILIARY/J BASIS SET INFORMATION
---------------------------------
There are 4 groups of distinct atoms

 Group   1 Type C   : 12s5p4d2f1g contracted to 6s4p3d1f1g pattern {711111/2111/211/2/1}
 Group   2 Type O   : 12s5p4d2f1g contracted to 6s4p3d1f1g pattern {711111/2111/211/2/1}
 Group   3 Type F   : 12s5p4d2f1g contracted to 6s4p3d1f1g pattern {711111/2111/211/2/1}
 Group   4 Type H   : 5s2p1d contracted to 3s1p1d pattern {311/2/1}

Atom   0C    basis set group =>   1
Atom   1O    basis set group =>   2
Atom   2O    basis set group =>   2
Atom   3C    basis set group =>   1
Atom   4C    basis set group =>   1
Atom   5C    basis set group =>   1
Atom   6C    basis set group =>   1
Atom   7C    basis set group =>   1
Atom   8C    basis set group =>   1
Atom   9C    basis set group =>   1
Atom  10F    basis set group =>   3
Atom  11F    basis set group =>   3
Atom  12F    basis set group =>   3
Atom  13F    basis set group =>   3
Atom  14F    basis set group =>   3
Atom  15F    basis set group =>   3
Atom  16F    basis set group =>   3
Atom  17F    basis set group =>   3
Atom  18F    basis set group =>   3
Atom  19F    basis set group =>   3
Atom  20F    basis set group =>   3
Atom  21F    basis set group =>   3
Atom  22F    basis set group =>   3
Atom  23F    basis set group =>   3
Atom  24H    basis set group =>   4


           ************************************************************
           *        Program running with 20 parallel MPI-processes    *
           *              working on a common directory               *
           ************************************************************
------------------------------------------------------------------------------
                             ORCA STARTUP CALCULATIONS
                           -- RI-GTO INTEGRALS CHOSEN --
------------------------------------------------------------------------------
------------------------------------------------------------------------------
                   ___                                                        
                  /   \      - P O W E R E D   B Y -                         
                 /     \                                                     
                 |  |  |   _    _      __       _____    __    __             
                 |  |  |  | |  | |    /  \     |  _  \  |  |  /  |          
                  \  \/   | |  | |   /    \    | | | |  |  | /  /          
                 / \  \   | |__| |  /  /\  \   | |_| |  |  |/  /          
                |  |  |   |  __  | /  /__\  \  |    /   |      \           
                |  |  |   | |  | | |   __   |  |    \   |  |\   \          
                \     /   | |  | | |  |  |  |  | |\  \  |  | \   \       
                 \___/    |_|  |_| |__|  |__|  |_| \__\ |__|  \__/        
                                                                              
                      - O R C A' S   B I G   F R I E N D -                    
                                      &                                       
                       - I N T E G R A L  F E E D E R -                       
                                                                              
 v1 FN, 2020, v2 2021, v3 2022-2024                                           
------------------------------------------------------------------------------


----------------------
SHARK INTEGRAL PACKAGE
----------------------

Number of atoms                             ...     25
Number of basis functions                   ...    750
Number of shells                            ...    268
Maximum angular momentum                    ...      3
Integral batch strategy                     ... SHARK/LIBINT Hybrid
RI-J (if used) integral strategy            ... SPLIT-RIJ (Revised 2003 algorithm where possible)
Printlevel                                  ...      1
Contraction scheme used                     ... SEGMENTED contraction
Prescreening option                         ... SCHWARTZ
   Thresh                                   ... 2.500e-11
   Tcut                                     ... 2.500e-12
   Tpresel                                  ... 2.500e-12 
Coulomb Range Separation                    ... NOT USED
Exchange Range Separation                   ... NOT USED
Multipole approximations                    ... NOT USED
Finite Nucleus Model                        ... NOT USED
CABS basis                                  ... NOT available
Auxiliary Coulomb fitting basis             ... AVAILABLE
   # of basis functions in Aux-J            ...   1187
   # of shells in Aux-J                     ...    365
   Maximum angular momentum in Aux-J        ...      4
Auxiliary J/K fitting basis                 ... NOT available
Auxiliary Correlation fitting basis         ... NOT available
Auxiliary 'external' fitting basis          ... NOT available

Checking pre-screening integrals            ... done (  0.0 sec) Dimension = 268
Check shell pair data                       ... done (  0.0 sec)
Shell pair information
Shell pair cut-off parameter TPreSel        ...   2.5e-12
Total number of shell pairs                 ...     36046
Shell pairs after pre-screening             ...     22442
Total number of primitive shell pairs       ...    118872
Primitive shell pairs kept                  ...     47605
          la=0 lb=0:   4265 shell pairs
          la=1 lb=0:   6140 shell pairs
          la=1 lb=1:   2109 shell pairs
          la=2 lb=0:   3335 shell pairs
          la=2 lb=1:   2418 shell pairs
          la=2 lb=2:    683 shell pairs
          la=3 lb=0:   1530 shell pairs
          la=3 lb=1:   1181 shell pairs
          la=3 lb=2:    628 shell pairs
          la=3 lb=3:    153 shell pairs

Calculating one electron integrals          ... done (  0.0 sec)
Calculating RI/J V-Matrix + Cholesky decomp.... done (  0.1 sec)
Calculating Nuclear repulsion               ... done (  0.0 sec) ENN=   2652.899970199420 Eh

Diagonalization of the overlap matrix:
Smallest eigenvalue                        ... 6.997e-05
Time for diagonalization                   ...    0.116 sec
Threshold for overlap eigenvalues          ... 1.000e-07
Number of eigenvalues below threshold      ... 0
Time for construction of square roots      ...    0.052 sec
Total time needed                          ...    0.173 sec

-------------------
DFT GRID GENERATION
-------------------

General Integration Accuracy     IntAcc      ... 4.388
Radial Grid Type                 RadialGrid  ... OptM3 with GC (2021)
Angular Grid (max. ang.)         AngularGrid ... 4 (Lebedev-302)
Angular grid pruning method      GridPruning ... 4 (adaptive)
Weight generation scheme         WeightScheme... mBecke (2022)
Basis function cutoff            BFCut       ... 1.0000e-11
Integration weight cutoff        WCut        ... 1.0000e-14
Partially contracted basis set               ... off
Rotationally invariant grid construction     ... off
Angular grids for H and He will be reduced by one unit

Total number of grid points                  ...   148701
Total number of batches                      ...     2338
Average number of points per batch           ...       63
Average number of grid points per atom       ...     5948

--------------------
COSX GRID GENERATION
--------------------

GRIDX 1
-------
General Integration Accuracy     IntAcc      ... 3.816
Radial Grid Type                 RadialGrid  ... OptM3 with GC (2021)
Angular Grid (max. ang.)         AngularGrid ... 1 (Lebedev-50)
Angular grid pruning method      GridPruning ... 4 (adaptive)
Weight generation scheme         WeightScheme... mBecke (2022)
Basis function cutoff            BFCut       ... 1.0000e-11
Integration weight cutoff        WCut        ... 1.0000e-14
Partially contracted basis set               ... on
Rotationally invariant grid construction     ... off
Angular grids for H and He will be reduced by one unit

Total number of grid points                  ...    18686
Total number of batches                      ...      157
Average number of points per batch           ...      119
Average number of grid points per atom       ...      747
UseSFitting                                  ... on

GRIDX 2
-------
General Integration Accuracy     IntAcc      ... 4.020
Radial Grid Type                 RadialGrid  ... OptM3 with GC (2021)
Angular Grid (max. ang.)         AngularGrid ... 2 (Lebedev-110)
Angular grid pruning method      GridPruning ... 4 (adaptive)
Weight generation scheme         WeightScheme... mBecke (2022)
Basis function cutoff            BFCut       ... 1.0000e-11
Integration weight cutoff        WCut        ... 1.0000e-14
Partially contracted basis set               ... on
Rotationally invariant grid construction     ... off
Angular grids for H and He will be reduced by one unit

Total number of grid points                  ...    44065
Total number of batches                      ...      355
Average number of points per batch           ...      124
Average number of grid points per atom       ...     1763
UseSFitting                                  ... on

GRIDX 3
-------
General Integration Accuracy     IntAcc      ... 4.338
Radial Grid Type                 RadialGrid  ... OptM3 with GC (2021)
Angular Grid (max. ang.)         AngularGrid ... 3 (Lebedev-194)
Angular grid pruning method      GridPruning ... 4 (adaptive)
Weight generation scheme         WeightScheme... mBecke (2022)
Basis function cutoff            BFCut       ... 1.0000e-11
Integration weight cutoff        WCut        ... 1.0000e-14
Partially contracted basis set               ... on
Rotationally invariant grid construction     ... off
Angular grids for H and He will be reduced by one unit

Total number of grid points                  ...    97574
Total number of batches                      ...      774
Average number of points per batch           ...      126
Average number of grid points per atom       ...     3903
UseSFitting                                  ... on
Initializing property integral containers    ... done (  0.0 sec)

SHARK setup successfully completed in   3.8 seconds

Maximum memory used throughout the entire STARTUP-calculation: 57.5 MB


           ************************************************************
           *        Program running with 20 parallel MPI-processes    *
           *              working on a common directory               *
           ************************************************************
-------------------------------------------------------------------------------
                                 ORCA GUESS
                   Start orbitals & Density for SCF / CASSCF
-------------------------------------------------------------------------------

------------
SCF SETTINGS
------------
Hamiltonian:
 Density Functional     Method          .... DFT(GTOs)
 Exchange Functional    Exchange        .... B88
   X-Alpha parameter    XAlpha          ....  0.666667
   Becke's b parameter  XBeta           ....  0.004200
 Correlation Functional Correlation     .... LYP
 LDA part of GGA corr.  LDAOpt          .... VWN-5
 Gradients option       PostSCFGGA      .... off
 Hybrid DFT is turned on
   Fraction HF Exchange ScalHFX         ....  0.200000
   Scaling of DF-GGA-X  ScalDFX         ....  0.720000
   Scaling of DF-GGA-C  ScalDFC         ....  0.810000
   Scaling of DF-LDA-C  ScalLDAC        ....  1.000000
   Perturbative correction              ....  0.000000
   NL short-range parameter             ....  4.800000
 RI-approximation to the Coulomb term is turned on
   Number of AuxJ basis functions       .... 1187
   RIJ-COSX (HFX calculated with COS-X)).... on


General Settings:
 Integral files         IntName         .... rf_mecn_freq_B3L_C6_P_B
 Hartree-Fock type      HFTyp           .... UHF
 Total Charge           Charge          ....    0
 Multiplicity           Mult            ....    2
 Number of Electrons    NEL             ....  191
 Basis Dimension        Dim             ....  750
 Nuclear Repulsion      ENuc            ....   2652.8999701994 Eh

Convergence Acceleration:
 AO-DIIS                CNVDIIS         .... on
   Start iteration      DIISMaxIt       ....     0
   Startup error        DIISStart       ....  0.200000
   # of expansion vecs  DIISMaxEq       ....     5
   Bias factor          DIISBfac        ....   1.050
   Max. coefficient     DIISMaxC        ....  10.000
 MO-DIIS                CNVKDIIS        .... off
 Trust-Rad. Augm. Hess. CNVTRAH         .... auto
   Auto Start mean grad. ratio tolernc. ....  1.125000
   Auto Start start iteration           ....    50
   Auto Start num. interpolation iter.  ....    10
   Max. Number of Micro iterations      ....    24
   Max. Number of Macro iterations      .... Maxiter - #DIIS iter
   Number of Davidson start vectors     ....     2
   Converg. threshold    (grad. norm)   ....   1.000e-05
   Grad. Scal. Fac. for Micro threshold ....   0.100
   Minimum threshold for Micro iter.    ....   1.000e-02
   NR start threshold (gradient norm)   ....   1.000e-04
   Initial trust radius                 ....   0.400
   Minimum AH scaling param. (alpha)    ....   1.000
   Maximum AH scaling param. (alpha)    .... 1000.000
   Quad. conv. algorithm                .... NR
   White noise on init. David. guess    .... on
   Maximum white noise                  ....   0.010
   Pseudo random numbers                .... off
   Inactive MOs                         .... canonical
   Orbital update algorithm             .... Taylor
   Preconditioner                       .... Diag
   Full preconditioner red. dimension   ....   250
 SOSCF                  CNVSOSCF        .... on
   Start iteration      SOSCFMaxIt      ....   150
   Startup grad/error   SOSCFStart      ....  0.001000
   Hessian update       SOSCFHessUp     .... L-BFGS
 Level Shifting         CNVShift        .... on
   Level shift para.    LevelShift      ....    0.2500
   Turn off err/grad.   ShiftErr        ....    0.0000
 Zerner damping         CNVZerner       .... off
 Static damping         CNVDamp         .... on
   Fraction old density DampFac         ....    0.8500
   Max. Damping (<1)    DampMax         ....    0.9800
   Min. Damping (>=0)   DampMin         ....    0.0000
   Turn off err/grad.   DampErr         ....    0.0300

SCF Procedure:
 Maximum # iterations   MaxIter         ....  1500
 SCF integral mode      SCFMode         .... Direct
   Integral package                     .... SHARK and LIBINT hybrid scheme
 Reset frequency        DirectResetFreq ....    20
 Integral Threshold     Thresh          ....  2.500e-11 Eh
 Primitive CutOff       TCut            ....  2.500e-12 Eh

Convergence Tolerance:
 Convergence Check Mode ConvCheckMode   .... Total+1el-Energy
 Convergence forced     ConvForced      .... 0
 Energy Change          TolE            ....  1.000e-08 Eh
 1-El. energy change                    ....  1.000e-05 Eh
 Orbital Gradient       TolG            ....  1.000e-05
 Orbital Rotation angle TolX            ....  1.000e-05
 DIIS Error             TolErr          ....  5.000e-07

------------------------------
INITIAL GUESS: MODEL POTENTIAL
------------------------------
Loading Hartree-Fock densities                     ... done
Calculating cut-offs                               ... done
Initializing the effective Hamiltonian             ... done
Setting up the integral package (SHARK)            ... done
Starting the Coulomb interaction                   ... done (   0.2 sec)
Making the grid                                    ... done (   0.5 sec)
Mapping shells                                     ... done
Starting the XC term evaluation                    ... done (   0.1 sec)
  promolecular density results
     # of electrons  =    191.000540443
     EX              =   -198.638014846
     EC              =     -7.176667869
     EX+EC           =   -205.814682715
Transforming the Hamiltonian                       ... done (   0.1 sec)
Diagonalizing the Hamiltonian                      ... done (   0.1 sec)
Back transforming the eigenvectors                 ... done (   0.0 sec)
Now organizing SCF variables                       ... done
                      ------------------
                      INITIAL GUESS DONE (   1.2 sec)
                      ------------------
             **** ENERGY FILE WAS UPDATED (rf_mecn_freq_B3L_C6_P_B.en.tmp) ****
Finished Guess after   2.0 sec
Maximum memory used throughout the entire GUESS-calculation: 46.6 MB


           ************************************************************
           *        Program running with 20 parallel MPI-processes    *
           *              working on a common directory               *
           ************************************************************

-------------------------------------------------------------------------------------------
                                      ORCA LEAN-SCF
                              memory conserving SCF solver
-------------------------------------------------------------------------------------------

--------------------
CPCM SOLVATION MODEL
--------------------
CPCM parameters:
  Epsilon                                         ...      35.6880
  Refrac                                          ...       1.3442
  Rsolv                                           ...       1.3000
  Surface type                                    ... GAUSSIAN VDW
  Discretization scheme                           ... Constant charge density
    Threshold for H atoms                         ...       5.0000 (charges/Ang^2)
    Threshold for non-H atoms                     ...       5.0000 (charges/Ang^2)
  Epsilon function type                           ...         CPCM
Solvent:                                          ... ACETONITRILE
SMD-CDS solvent descriptors:
  Soln                                            ...       1.3442
  Soln25                                          ...       1.3416
  Sola                                            ...       0.0700
  Solb                                            ...       0.3200
  Solg                                            ...      41.2500
  Solc                                            ...       0.0000
  Solh                                            ...       0.0000
Radii:
  Scheme                                          ... Element-dependent radii
  Radius for C  used is    3.4960 Bohr (=   1.8500 Ang.)
  Radius for O  used is    4.0969 Bohr (=   2.1680 Ang.)
  Radius for F  used is    3.2692 Bohr (=   1.7300 Ang.)
  Radius for H  used is    2.2677 Bohr (=   1.2000 Ang.)
Calculating surface                               ...        done! (  0.0s)
Cavity surface points                             ...         2178
Cavity Volume                                     ...    2114.4258
Cavity Surface-area                               ...    1112.3584
Calculating surface distance matrix               ...        done! (  0.0s)
Performing Cholesky decomposition & store         ...        done! (  0.1s)
Overall time for CPCM initialization              ...                 0.2s

----------------------------------------D-I-I-S--------------------------------------------
Iteration    Energy (Eh)           Delta-E    RMSDP     MaxDP     DIISErr   Damp  Time(sec)
-------------------------------------------------------------------------------------------
               ***  Starting incremental Fock matrix formation  ***
    1    -1853.2327450787161069     0.00e+00  1.94e-04  1.41e-02  1.48e-01  0.850   7.3
Warning: op=1 Small HOMO/LUMO gap (   0.063) - skipping pre-diagonalization
         Will do a full diagonalization
    2    -1853.3763972432252558    -1.44e-01  1.87e-04  1.24e-02  9.99e-02  0.850   5.2
                               ***Turning on AO-DIIS***
    3    -1853.4539889426905575    -7.76e-02  8.52e-05  5.29e-03  5.79e-02  0.850   4.6
    4    -1853.5008021528337849    -4.68e-02  5.02e-05  2.88e-03  4.43e-02  0.850   4.1
    5    -1853.5342491417486599    -3.34e-02  3.81e-05  2.50e-03  3.79e-02  0.850   3.9
    6    -1853.5608624170781695    -2.66e-02  3.35e-05  2.65e-03  3.30e-02  0.850   4.1
    7    -1853.5830583650367771    -2.22e-02  3.10e-05  2.79e-03  2.81e-02  0.850   4.1
    8    -1853.6017946868769286    -1.87e-02  1.82e-04  1.67e-02  2.31e-02  0.000   4.1
    9    -1853.6988174666157647    -9.70e-02  1.73e-05  1.55e-03  3.56e-03  0.000   4.4
   10    -1853.6990263136522117    -2.09e-04  7.51e-06  8.27e-04  1.42e-03  0.000   3.9
                              *** Initializing SOSCF ***
---------------------------------------S-O-S-C-F--------------------------------------
Iteration    Energy (Eh)           Delta-E    RMSDP     MaxDP     MaxGrad    Time(sec)
--------------------------------------------------------------------------------------
   11    -1853.6990500466808953    -2.37e-05  3.64e-06  3.98e-04  5.30e-04     4.3
               *** Restarting incremental Fock matrix formation ***
   12    -1853.6990916699242007    -4.16e-05  2.86e-06  2.02e-04  1.45e-04     7.2
   13    -1853.6990919664294779    -2.97e-07  1.79e-06  1.31e-04  3.02e-04     4.7
   14    -1853.6990928344794156    -8.68e-07  1.08e-06  8.15e-05  6.08e-05     4.7
   15    -1853.6990928688946951    -3.44e-08  4.57e-07  5.01e-05  2.08e-05     4.5
   16    -1853.6990929023868375    -3.35e-08  1.40e-07  9.30e-06  4.71e-06     3.6
   17    -1853.6990929226976732    -2.03e-08  6.28e-08  5.60e-06  3.53e-06     3.5
   18    -1853.6990929458670507    -2.32e-08  8.92e-08  1.01e-05  1.30e-06     3.2
                  *** Gradient check signals convergence ***

               *****************************************************
               *                     SUCCESS                       *
               *           SCF CONVERGED AFTER  18 CYCLES          *
               *****************************************************

Recomputing exchange energy using gridx3       ... done (    9.207 sec)
Old exchange energy                            :    -39.824871113 Eh
New exchange energy                            :    -39.824851721 Eh
Exchange energy change after final integration :      0.000019393 Eh
Total energy after final integration           :  -1853.699073553 Eh

SMD CDS free energy correction energy :                 3.29192     Kcal/mol
Total Energy after SMD CDS correction =             -1853.693827553 Eh
             **** ENERGY FILE WAS UPDATED (rf_mecn_freq_B3L_C6_P_B.en.tmp) ****

----------------
TOTAL SCF ENERGY
----------------

Total Energy       :      -1853.69382755296851 Eh          -50441.57345 eV

Components:
Nuclear Repulsion  :       2652.89997019941984 Eh           72189.07821 eV
Electronic Energy  :      -4506.58501335382880 Eh         -122630.41262 eV
One Electron Energy:      -7856.39283773803800 Eh         -213783.31765 eV
Two Electron Energy:       3349.80782438420920 Eh           91152.90503 eV
CPCM Dielectric    :         -0.01404979145802 Eh              -0.38231 eV
SMD CDS (Gcds)     :          0.00524600032569 Eh               0.14275 eV

Virial components:
Potential Energy   :      -3701.08804258092187 Eh         -100711.72572 eV
Kinetic Energy     :       1847.39421502795312 Eh           50270.15228 eV
Virial Ratio       :          2.00340999905368

DFT components:
N(Alpha)           :       96.000007952290 electrons
N(Beta)            :       94.999995805019 electrons
N(Total)           :      191.000003757309 electrons
E(X)               :     -158.704825963398 Eh       
E(C)               :       -8.381335922389 Eh       
E(XC)              :     -167.086161885787 Eh       

CPCM Solvation Model Properties:
Surface-charge          :         -0.00923095728432
Corrected charge        :          0.00000000000000
Outlying charge corr.   :          0.00000468925266 Eh               0.00013 eV
Free-energy (cav+disp)  :          0.00524600032569 Eh               0.14275 eV

---------------
SCF CONVERGENCE
---------------

  Last Energy change         ...    2.3169e-08  Tolerance :   1.0000e-08
  Last MAX-Density change    ...    1.0114e-05  Tolerance :   1.0000e-07
  Last RMS-Density change    ...    8.9224e-08  Tolerance :   5.0000e-09
  Last DIIS Error            ...    5.2970e-04  Tolerance :   5.0000e-07
  Last Orbital Gradient      ...    1.3045e-06  Tolerance :   1.0000e-05
  Last Orbital Rotation      ...    4.6117e-06  Tolerance :   1.0000e-05


----------------------
UHF SPIN CONTAMINATION
----------------------

Warning: in a DFT calculation there is little theoretical justification to 
         calculate <S**2> as in Hartree-Fock theory. We will do it anyways
         but you should keep in mind that the values have only limited relevance

Expectation value of <S**2>     :     0.754056
Ideal value S*(S+1) for S=0.5   :     0.750000
Deviation                       :     0.004056

----------------
ORBITAL ENERGIES
----------------
                 SPIN UP ORBITALS
  NO   OCC          E(Eh)            E(eV) 
   0   1.0000     -24.761487      -673.7943 
   1   1.0000     -24.744248      -673.3252 
   2   1.0000     -24.743943      -673.3169 
   3   1.0000     -24.743277      -673.2988 
   4   1.0000     -24.743250      -673.2980 
   5   1.0000     -24.742494      -673.2775 
   6   1.0000     -24.742349      -673.2735 
   7   1.0000     -24.741865      -673.2604 
   8   1.0000     -24.740430      -673.2213 
   9   1.0000     -24.738438      -673.1671 
  10   1.0000     -24.737574      -673.1436 
  11   1.0000     -24.734689      -673.0651 
  12   1.0000     -24.733025      -673.0198 
  13   1.0000     -24.732315      -673.0005 
  14   1.0000     -19.207437      -522.6609 
  15   1.0000     -19.154488      -521.2201 
  16   1.0000     -10.459660      -284.6218 
  17   1.0000     -10.407961      -283.2150 
  18   1.0000     -10.405280      -283.1421 
  19   1.0000     -10.405126      -283.1379 
  20   1.0000     -10.404814      -283.1294 
  21   1.0000     -10.396020      -282.8901 
  22   1.0000     -10.346425      -281.5405 
  23   1.0000     -10.331413      -281.1320 
  24   1.0000      -1.351940       -36.7882 
  25   1.0000      -1.330580       -36.2069 
  26   1.0000      -1.315056       -35.7845 
  27   1.0000      -1.306779       -35.5593 
  28   1.0000      -1.302449       -35.4415 
  29   1.0000      -1.300963       -35.4010 
  30   1.0000      -1.298554       -35.3354 
  31   1.0000      -1.262666       -34.3589 
  32   1.0000      -1.262506       -34.3545 
  33   1.0000      -1.260049       -34.2877 
  34   1.0000      -1.252933       -34.0940 
  35   1.0000      -1.247851       -33.9558 
  36   1.0000      -1.243864       -33.8473 
  37   1.0000      -1.242979       -33.8232 
  38   1.0000      -1.146910       -31.2090 
  39   1.0000      -1.062777       -28.9196 
  40   1.0000      -0.861924       -23.4541 
  41   1.0000      -0.838090       -22.8056 
  42   1.0000      -0.811883       -22.0925 
  43   1.0000      -0.779281       -21.2053 
  44   1.0000      -0.735529       -20.0148 
  45   1.0000      -0.703887       -19.1537 
  46   1.0000      -0.677487       -18.4354 
  47   1.0000      -0.668676       -18.1956 
  48   1.0000      -0.645363       -17.5612 
  49   1.0000      -0.643917       -17.5219 
  50   1.0000      -0.639522       -17.4023 
  51   1.0000      -0.633670       -17.2430 
  52   1.0000      -0.632793       -17.2192 
  53   1.0000      -0.625370       -17.0172 
  54   1.0000      -0.612935       -16.6788 
  55   1.0000      -0.610483       -16.6121 
  56   1.0000      -0.604491       -16.4490 
  57   1.0000      -0.599192       -16.3048 
  58   1.0000      -0.593174       -16.1411 
  59   1.0000      -0.589535       -16.0421 
  60   1.0000      -0.580868       -15.8062 
  61   1.0000      -0.574148       -15.6234 
  62   1.0000      -0.539753       -14.6874 
  63   1.0000      -0.520993       -14.1769 
  64   1.0000      -0.514564       -14.0020 
  65   1.0000      -0.508850       -13.8465 
  66   1.0000      -0.506855       -13.7922 
  67   1.0000      -0.502782       -13.6814 
  68   1.0000      -0.500406       -13.6167 
  69   1.0000      -0.498953       -13.5772 
  70   1.0000      -0.495739       -13.4897 
  71   1.0000      -0.488853       -13.3024 
  72   1.0000      -0.487689       -13.2707 
  73   1.0000      -0.482485       -13.1291 
  74   1.0000      -0.478373       -13.0172 
  75   1.0000      -0.474246       -12.9049 
  76   1.0000      -0.469822       -12.7845 
  77   1.0000      -0.468081       -12.7371 
  78   1.0000      -0.465309       -12.6617 
  79   1.0000      -0.462067       -12.5735 
  80   1.0000      -0.461258       -12.5515 
  81   1.0000      -0.459663       -12.5081 
  82   1.0000      -0.452118       -12.3028 
  83   1.0000      -0.448156       -12.1949 
  84   1.0000      -0.446991       -12.1632 
  85   1.0000      -0.444261       -12.0890 
  86   1.0000      -0.442619       -12.0443 
  87   1.0000      -0.441541       -12.0149 
  88   1.0000      -0.439304       -11.9541 
  89   1.0000      -0.431135       -11.7318 
  90   1.0000      -0.410281       -11.1643 
  91   1.0000      -0.388501       -10.5717 
  92   1.0000      -0.363354        -9.8874 
  93   1.0000      -0.360074        -9.7981 
  94   1.0000      -0.318720        -8.6728 
  95   1.0000      -0.276802        -7.5322 
  96   0.0000      -0.051116        -1.3909 
  97   0.0000      -0.004115        -0.1120 
  98   0.0000       0.024335         0.6622 
  99   0.0000       0.034332         0.9342 
 100   0.0000       0.039426         1.0728 
 101   0.0000       0.066500         1.8096 
 102   0.0000       0.068221         1.8564 
 103   0.0000       0.079479         2.1627 
 104   0.0000       0.101433         2.7601 
 105   0.0000       0.113435         3.0867 
 106   0.0000       0.120129         3.2689 

                 SPIN DOWN ORBITALS
  NO   OCC          E(Eh)            E(eV) 
   0   1.0000     -24.756864      -673.6685 
   1   1.0000     -24.744198      -673.3239 
   2   1.0000     -24.743882      -673.3152 
   3   1.0000     -24.743246      -673.2980 
   4   1.0000     -24.743229      -673.2975 
   5   1.0000     -24.742496      -673.2775 
   6   1.0000     -24.742309      -673.2725 
   7   1.0000     -24.741856      -673.2601 
   8   1.0000     -24.740097      -673.2123 
   9   1.0000     -24.737713      -673.1474 
  10   1.0000     -24.736910      -673.1255 
  11   1.0000     -24.734690      -673.0651 
  12   1.0000     -24.733022      -673.0197 
  13   1.0000     -24.730682      -672.9561 
  14   1.0000     -19.207434      -522.6609 
  15   1.0000     -19.154476      -521.2198 
  16   1.0000     -10.459570      -284.6194 
  17   1.0000     -10.408829      -283.2386 
  18   1.0000     -10.405847      -283.1575 
  19   1.0000     -10.404773      -283.1283 
  20   1.0000     -10.404577      -283.1229 
  21   1.0000     -10.395978      -282.8889 
  22   1.0000     -10.346414      -281.5402 
  23   1.0000     -10.316989      -280.7395 
  24   1.0000      -1.351688       -36.7813 
  25   1.0000      -1.330092       -36.1936 
  26   1.0000      -1.313457       -35.7410 
  27   1.0000      -1.305026       -35.5116 
  28   1.0000      -1.301611       -35.4186 
  29   1.0000      -1.299778       -35.3688 
  30   1.0000      -1.290962       -35.1289 
  31   1.0000      -1.262386       -34.3513 
  32   1.0000      -1.262251       -34.3476 
  33   1.0000      -1.259919       -34.2841 
  34   1.0000      -1.252508       -34.0825 
  35   1.0000      -1.247019       -33.9331 
  36   1.0000      -1.243848       -33.8468 
  37   1.0000      -1.240318       -33.7508 
  38   1.0000      -1.146896       -31.2086 
  39   1.0000      -1.062757       -28.9191 
  40   1.0000      -0.849617       -23.1193 
  41   1.0000      -0.834065       -22.6961 
  42   1.0000      -0.810550       -22.0562 
  43   1.0000      -0.774293       -21.0696 
  44   1.0000      -0.731473       -19.9044 
  45   1.0000      -0.702129       -19.1059 
  46   1.0000      -0.673688       -18.3320 
  47   1.0000      -0.668400       -18.1881 
  48   1.0000      -0.643267       -17.5042 
  49   1.0000      -0.642011       -17.4700 
  50   1.0000      -0.636791       -17.3280 
  51   1.0000      -0.633057       -17.2263 
  52   1.0000      -0.632179       -17.2025 
  53   1.0000      -0.624750       -17.0003 
  54   1.0000      -0.611793       -16.6477 
  55   1.0000      -0.608346       -16.5539 
  56   1.0000      -0.602590       -16.3973 
  57   1.0000      -0.596922       -16.2431 
  58   1.0000      -0.589491       -16.0409 
  59   1.0000      -0.588057       -16.0018 
  60   1.0000      -0.579073       -15.7574 
  61   1.0000      -0.573918       -15.6171 
  62   1.0000      -0.520974       -14.1764 
  63   1.0000      -0.513327       -13.9683 
  64   1.0000      -0.512510       -13.9461 
  65   1.0000      -0.508462       -13.8360 
  66   1.0000      -0.505299       -13.7499 
  67   1.0000      -0.501603       -13.6493 
  68   1.0000      -0.499552       -13.5935 
  69   1.0000      -0.497580       -13.5398 
  70   1.0000      -0.495166       -13.4741 
  71   1.0000      -0.487576       -13.2676 
  72   1.0000      -0.486078       -13.2269 
  73   1.0000      -0.481819       -13.1110 
  74   1.0000      -0.477344       -12.9892 
  75   1.0000      -0.472916       -12.8687 
  76   1.0000      -0.468093       -12.7375 
  77   1.0000      -0.467407       -12.7188 
  78   1.0000      -0.463558       -12.6141 
  79   1.0000      -0.460822       -12.5396 
  80   1.0000      -0.459962       -12.5162 
  81   1.0000      -0.458496       -12.4763 
  82   1.0000      -0.451611       -12.2890 
  83   1.0000      -0.446588       -12.1523 
  84   1.0000      -0.446152       -12.1404 
  85   1.0000      -0.443673       -12.0729 
  86   1.0000      -0.442276       -12.0350 
  87   1.0000      -0.440517       -11.9871 
  88   1.0000      -0.437656       -11.9092 
  89   1.0000      -0.430362       -11.7108 
  90   1.0000      -0.408571       -11.1178 
  91   1.0000      -0.386171       -10.5083 
  92   1.0000      -0.361934        -9.8487 
  93   1.0000      -0.359147        -9.7729 
  94   1.0000      -0.318294        -8.6612 
  95   0.0000      -0.133250        -3.6259 
  96   0.0000      -0.049956        -1.3594 
  97   0.0000      -0.001524        -0.0415 
  98   0.0000       0.027249         0.7415 
  99   0.0000       0.036231         0.9859 
 100   0.0000       0.041160         1.1200 
 101   0.0000       0.073545         2.0013 
 102   0.0000       0.075669         2.0590 
 103   0.0000       0.083519         2.2727 
 104   0.0000       0.103016         2.8032 
 105   0.0000       0.116499         3.1701 
*Only the first 10 virtual orbitals were printed.

                    ********************************
                    * MULLIKEN POPULATION ANALYSIS *
                    ********************************

--------------------------------------------
MULLIKEN ATOMIC CHARGES AND SPIN POPULATIONS
--------------------------------------------
   0 C :    0.227599    0.000418
   1 O :   -0.347494    0.000061
   2 O :   -0.284995    0.000465
   3 C :    0.411785    0.001772
   4 C :    0.305993    0.004462
   5 C :    0.316817    0.027831
   6 C :    0.390943   -0.017001
   7 C :    0.121807    0.825612
   8 C :    0.345841    0.003667
   9 C :    0.478174   -0.001966
  10 F :   -0.177439    0.000020
  11 F :   -0.172732    0.000089
  12 F :   -0.171453   -0.000047
  13 F :   -0.173671    0.000218
  14 F :   -0.174043    0.000769
  15 F :   -0.173144    0.000635
  16 F :   -0.171012    0.006079
  17 F :   -0.173998    0.013744
  18 F :   -0.139187    0.089466
  19 F :   -0.177968    0.030015
  20 F :   -0.173411    0.011598
  21 F :   -0.158817    0.000565
  22 F :   -0.153922    0.000342
  23 F :   -0.156169    0.001125
  24 H :    0.380498    0.000060
Sum of atomic charges         :    0.0000000
Sum of atomic spin populations:    1.0000000

-----------------------------------------------------
MULLIKEN REDUCED ORBITAL CHARGES AND SPIN POPULATIONS
-----------------------------------------------------
CHARGE
  0 C s       :     3.099211  s :     3.099211
      pz      :     0.754220  p :     2.389701
      px      :     0.876878
      py      :     0.758603
      dz2     :     0.057481  d :     0.258861
      dxz     :     0.030596
      dyz     :     0.047918
      dx2y2   :     0.077897
      dxy     :     0.044969
      f0      :     0.002355  f :     0.024628
      f+1     :     0.002517
      f-1     :     0.004104
      f+2     :     0.004254
      f-2     :     0.003697
      f+3     :     0.002986
      f-3     :     0.004715

  1 O s       :     3.766797  s :     3.766797
      pz      :     1.529358  p :     4.548422
      px      :     1.416558
      py      :     1.602506
      dz2     :     0.006368  d :     0.030513
      dxz     :     0.003014
      dyz     :     0.007768
      dx2y2   :     0.008272
      dxy     :     0.005091
      f0      :     0.000243  f :     0.001762
      f+1     :     0.000217
      f-1     :     0.000313
      f+2     :     0.000358
      f-2     :     0.000294
      f+3     :     0.000194
      f-3     :     0.000143

  2 O s       :     3.792853  s :     3.792853
      pz      :     1.497003  p :     4.460279
      px      :     1.592820
      py      :     1.370456
      dz2     :     0.004703  d :     0.030017
      dxz     :     0.004439
      dyz     :     0.006062
      dx2y2   :     0.008199
      dxy     :     0.006613
      f0      :     0.000115  f :     0.001846
      f+1     :     0.000179
      f-1     :     0.000310
      f+2     :     0.000216
      f-2     :     0.000318
      f+3     :     0.000304
      f-3     :     0.000404

  3 C s       :     3.066030  s :     3.066030
      pz      :     0.663120  p :     2.217597
      px      :     0.917270
      py      :     0.637206
      dz2     :     0.046631  d :     0.276832
      dxz     :     0.055522
      dyz     :     0.073824
      dx2y2   :     0.046417
      dxy     :     0.054439
      f0      :     0.005695  f :     0.027756
      f+1     :     0.004477
      f-1     :     0.004776
      f+2     :     0.003333
      f-2     :     0.002104
      f+3     :     0.004015
      f-3     :     0.003357

  4 C s       :     3.163748  s :     3.163748
      pz      :     0.652360  p :     2.217999
      px      :     0.900764
      py      :     0.664874
      dz2     :     0.055468  d :     0.284205
      dxz     :     0.050728
      dyz     :     0.075165
      dx2y2   :     0.043776
      dxy     :     0.059067
      f0      :     0.004927  f :     0.028056
      f+1     :     0.004211
      f-1     :     0.006332
      f+2     :     0.003171
      f-2     :     0.002318
      f+3     :     0.004387
      f-3     :     0.002710

  5 C s       :     3.161868  s :     3.161868
      pz      :     0.594308  p :     2.205840
      px      :     0.902809
      py      :     0.708723
      dz2     :     0.066881  d :     0.287381
      dxz     :     0.061559
      dyz     :     0.064087
      dx2y2   :     0.043417
      dxy     :     0.051437
      f0      :     0.004311  f :     0.028093
      f+1     :     0.004454
      f-1     :     0.007496
      f+2     :     0.002886
      f-2     :     0.003502
      f+3     :     0.003045
      f-3     :     0.002400

  6 C s       :     3.080605  s :     3.080605
      pz      :     0.601015  p :     2.205924
      px      :     0.877854
      py      :     0.727055
      dz2     :     0.074260  d :     0.294777
      dxz     :     0.062657
      dyz     :     0.056802
      dx2y2   :     0.042754
      dxy     :     0.058304
      f0      :     0.005215  f :     0.027751
      f+1     :     0.003116
      f-1     :     0.006082
      f+2     :     0.003711
      f-2     :     0.004596
      f+3     :     0.002837
      f-3     :     0.002195

  7 C s       :     3.240888  s :     3.240888
      pz      :     0.702984  p :     2.469212
      px      :     0.866760
      py      :     0.899468
      dz2     :     0.038026  d :     0.150444
      dxz     :     0.043303
      dyz     :     0.022253
      dx2y2   :     0.020807
      dxy     :     0.026055
      f0      :     0.004114  f :     0.017648
      f+1     :     0.002758
      f-1     :     0.002232
      f+2     :     0.003002
      f-2     :     0.002658
      f+3     :     0.001592
      f-3     :     0.001292

  8 C s       :     3.091677  s :     3.091677
      pz      :     0.691073  p :     2.253865
      px      :     0.848371
      py      :     0.714421
      dz2     :     0.054262  d :     0.280938
      dxz     :     0.053035
      dyz     :     0.064907
      dx2y2   :     0.045098
      dxy     :     0.063636
      f0      :     0.005604  f :     0.027679
      f+1     :     0.003719
      f-1     :     0.004689
      f+2     :     0.002858
      f-2     :     0.003485
      f+3     :     0.002482
      f-3     :     0.004842

  9 C s       :     3.026277  s :     3.026277
      pz      :     0.624000  p :     2.111387
      px      :     0.758207
      py      :     0.729180
      dz2     :     0.076183  d :     0.343761
      dxz     :     0.060772
      dyz     :     0.081086
      dx2y2   :     0.059325
      dxy     :     0.066395
      f0      :     0.008490  f :     0.040401
      f+1     :     0.005458
      f-1     :     0.004851
      f+2     :     0.006099
      f-2     :     0.006505
      f+3     :     0.003448
      f-3     :     0.005549

 10 F s       :     3.915679  s :     3.915679
      pz      :     1.890527  p :     5.244871
      px      :     1.884277
      py      :     1.470068
      dz2     :     0.002267  d :     0.016188
      dxz     :     0.000264
      dyz     :     0.003262
      dx2y2   :     0.006031
      dxy     :     0.004364
      f0      :     0.000058  f :     0.000700
      f+1     :     0.000017
      f-1     :     0.000134
      f+2     :     0.000087
      f-2     :     0.000021
      f+3     :     0.000182
      f-3     :     0.000201

 11 F s       :     3.913453  s :     3.913453
      pz      :     1.472768  p :     5.242182
      px      :     1.903016
      py      :     1.866398
      dz2     :     0.007807  d :     0.016376
      dxz     :     0.003686
      dyz     :     0.004100
      dx2y2   :     0.000424
      dxy     :     0.000360
      f0      :     0.000293  f :     0.000722
      f+1     :     0.000152
      f-1     :     0.000208
      f+2     :     0.000036
      f-2     :     0.000029
      f+3     :     0.000002
      f-3     :     0.000003

 12 F s       :     3.916645  s :     3.916645
      pz      :     1.867647  p :     5.237606
      px      :     1.899931
      py      :     1.470028
      dz2     :     0.002208  d :     0.016493
      dxz     :     0.000347
      dyz     :     0.004121
      dx2y2   :     0.006035
      dxy     :     0.003781
      f0      :     0.000072  f :     0.000710
      f+1     :     0.000009
      f-1     :     0.000127
      f+2     :     0.000136
      f-2     :     0.000029
      f+3     :     0.000141
      f-3     :     0.000197

 13 F s       :     3.917129  s :     3.917129
      pz      :     1.473625  p :     5.239403
      px      :     1.876071
      py      :     1.889706
      dz2     :     0.007843  d :     0.016433
      dxz     :     0.004510
      dyz     :     0.003302
      dx2y2   :     0.000444
      dxy     :     0.000335
      f0      :     0.000294  f :     0.000705
      f+1     :     0.000203
      f-1     :     0.000142
      f+2     :     0.000036
      f-2     :     0.000026
      f+3     :     0.000002
      f-3     :     0.000002

 14 F s       :     3.917154  s :     3.917154
      pz      :     1.767220  p :     5.239724
      px      :     1.895480
      py      :     1.577025
      dz2     :     0.002190  d :     0.016456
      dxz     :     0.001268
      dyz     :     0.005924
      dx2y2   :     0.004034
      dxy     :     0.003040
      f0      :     0.000080  f :     0.000708
      f+1     :     0.000008
      f-1     :     0.000142
      f+2     :     0.000193
      f-2     :     0.000098
      f+3     :     0.000086
      f-3     :     0.000101

 15 F s       :     3.918838  s :     3.918838
      pz      :     1.478047  p :     5.237058
      px      :     1.889377
      py      :     1.869633
      dz2     :     0.007682  d :     0.016538
      dxz     :     0.004022
      dyz     :     0.003894
      dx2y2   :     0.000493
      dxy     :     0.000446
      f0      :     0.000290  f :     0.000710
      f+1     :     0.000166
      f-1     :     0.000180
      f+2     :     0.000033
      f-2     :     0.000036
      f+3     :     0.000002
      f-3     :     0.000002

 16 F s       :     3.918080  s :     3.918080
      pz      :     1.705848  p :     5.235963
      px      :     1.906404
      py      :     1.623712
      dz2     :     0.002634  d :     0.016268
      dxz     :     0.001507
      dyz     :     0.006575
      dx2y2   :     0.003180
      dxy     :     0.002372
      f0      :     0.000076  f :     0.000700
      f+1     :     0.000013
      f-1     :     0.000191
      f+2     :     0.000203
      f-2     :     0.000096
      f+3     :     0.000056
      f-3     :     0.000066

 17 F s       :     3.916596  s :     3.916596
      pz      :     1.535916  p :     5.240850
      px      :     1.868506
      py      :     1.836428
      dz2     :     0.005893  d :     0.015870
      dxz     :     0.003950
      dyz     :     0.004293
      dx2y2   :     0.000824
      dxy     :     0.000911
      f0      :     0.000179  f :     0.000682
      f+1     :     0.000157
      f-1     :     0.000188
      f+2     :     0.000061
      f-2     :     0.000083
      f+3     :     0.000006
      f-3     :     0.000008

 18 F s       :     3.919917  s :     3.919917
      pz      :     1.570081  p :     5.200226
      px      :     1.881290
      py      :     1.748855
      dz2     :     0.005866  d :     0.018273
      dxz     :     0.003625
      dyz     :     0.005936
      dx2y2   :     0.001576
      dxy     :     0.001270
      f0      :     0.000166  f :     0.000771
      f+1     :     0.000111
      f-1     :     0.000235
      f+2     :     0.000119
      f-2     :     0.000108
      f+3     :     0.000016
      f-3     :     0.000015

 19 F s       :     3.914399  s :     3.914399
      pz      :     1.893862  p :     5.247435
      px      :     1.830809
      py      :     1.522764
      dz2     :     0.002199  d :     0.015466
      dxz     :     0.000734
      dyz     :     0.002670
      dx2y2   :     0.004738
      dxy     :     0.005125
      f0      :     0.000056  f :     0.000668
      f+1     :     0.000032
      f-1     :     0.000115
      f+2     :     0.000041
      f-2     :     0.000061
      f+3     :     0.000218
      f-3     :     0.000144

 20 F s       :     3.916722  s :     3.916722
      pz      :     1.500155  p :     5.239936
      px      :     1.845393
      py      :     1.894388
      dz2     :     0.006814  d :     0.016060
      dxz     :     0.005139
      dyz     :     0.002906
      dx2y2   :     0.000592
      dxy     :     0.000610
      f0      :     0.000227  f :     0.000693
      f+1     :     0.000246
      f-1     :     0.000104
      f+2     :     0.000055
      f-2     :     0.000052
      f+3     :     0.000004
      f-3     :     0.000005

 21 F s       :     3.912529  s :     3.912529
      pz      :     1.889013  p :     5.228972
      px      :     1.840350
      py      :     1.499609
      dz2     :     0.002372  d :     0.016560
      dxz     :     0.000626
      dyz     :     0.002958
      dx2y2   :     0.005362
      dxy     :     0.005242
      f0      :     0.000063  f :     0.000756
      f+1     :     0.000031
      f-1     :     0.000136
      f+2     :     0.000056
      f-2     :     0.000058
      f+3     :     0.000243
      f-3     :     0.000170

 22 F s       :     3.911052  s :     3.911052
      pz      :     1.644557  p :     5.225412
      px      :     1.698673
      py      :     1.882182
      dz2     :     0.003695  d :     0.016691
      dxz     :     0.006726
      dyz     :     0.002227
      dx2y2   :     0.002197
      dxy     :     0.001846
      f0      :     0.000103  f :     0.000767
      f+1     :     0.000247
      f-1     :     0.000046
      f+2     :     0.000169
      f-2     :     0.000125
      f+3     :     0.000039
      f-3     :     0.000038

 23 F s       :     3.911024  s :     3.911024
      pz      :     1.555501  p :     5.227730
      px      :     1.783215
      py      :     1.889014
      dz2     :     0.005631  d :     0.016653
      dxz     :     0.006005
      dyz     :     0.002758
      dx2y2   :     0.001190
      dxy     :     0.001069
      f0      :     0.000172  f :     0.000762
      f+1     :     0.000283
      f-1     :     0.000087
      f+2     :     0.000104
      f-2     :     0.000090
      f+3     :     0.000013
      f-3     :     0.000013

 24 H s       :     0.576340  s :     0.576340
      pz      :     0.011825  p :     0.043162
      px      :     0.020627
      py      :     0.010710


SPIN
  0 C s       :     0.000313  s :     0.000313
      pz      :     0.000001  p :     0.000071
      px      :     0.000016
      py      :     0.000054
      dz2     :    -0.000008  d :     0.000031
      dxz     :     0.000010
      dyz     :     0.000011
      dx2y2   :    -0.000004
      dxy     :     0.000023
      f0      :     0.000000  f :     0.000002
      f+1     :     0.000001
      f-1     :    -0.000000
      f+2     :    -0.000000
      f-2     :     0.000000
      f+3     :     0.000000
      f-3     :     0.000001

  1 O s       :     0.000007  s :     0.000007
      pz      :     0.000095  p :     0.000050
      px      :    -0.000012
      py      :    -0.000033
      dz2     :    -0.000000  d :     0.000003
      dxz     :     0.000003
      dyz     :     0.000000
      dx2y2   :     0.000001
      dxy     :    -0.000000
      f0      :     0.000000  f :     0.000000
      f+1     :    -0.000000
      f-1     :     0.000000
      f+2     :     0.000000
      f-2     :     0.000000
      f+3     :    -0.000000
      f-3     :     0.000000

  2 O s       :     0.000008  s :     0.000008
      pz      :     0.000397  p :     0.000459
      px      :    -0.000030
      py      :     0.000092
      dz2     :    -0.000001  d :    -0.000002
      dxz     :    -0.000000
      dyz     :    -0.000001
      dx2y2   :     0.000000
      dxy     :    -0.000001
      f0      :    -0.000000  f :    -0.000000
      f+1     :    -0.000000
      f-1     :    -0.000000
      f+2     :    -0.000000
      f-2     :    -0.000000
      f+3     :     0.000000
      f-3     :     0.000000

  3 C s       :    -0.000278  s :    -0.000278
      pz      :     0.000417  p :     0.001750
      px      :     0.000638
      py      :     0.000696
      dz2     :     0.000059  d :     0.000293
      dxz     :    -0.000011
      dyz     :     0.000014
      dx2y2   :     0.000226
      dxy     :     0.000005
      f0      :    -0.000001  f :     0.000007
      f+1     :     0.000000
      f-1     :     0.000000
      f+2     :     0.000003
      f-2     :     0.000002
      f+3     :     0.000002
      f-3     :    -0.000000

  4 C s       :    -0.001089  s :    -0.001089
      pz      :     0.000308  p :     0.004842
      px      :     0.002405
      py      :     0.002129
      dz2     :     0.000052  d :     0.000682
      dxz     :     0.000067
      dyz     :    -0.000001
      dx2y2   :     0.000395
      dxy     :     0.000169
      f0      :    -0.000001  f :     0.000027
      f+1     :     0.000002
      f-1     :     0.000001
      f+2     :     0.000001
      f-2     :     0.000000
      f+3     :     0.000013
      f-3     :     0.000011

  5 C s       :    -0.001272  s :    -0.001272
      pz      :     0.003286  p :     0.025406
      px      :     0.010577
      py      :     0.011543
      dz2     :     0.000512  d :     0.003712
      dxz     :     0.000058
      dyz     :    -0.000003
      dx2y2   :     0.003084
      dxy     :     0.000062
      f0      :    -0.000009  f :    -0.000015
      f+1     :     0.000001
      f-1     :    -0.000009
      f+2     :    -0.000005
      f-2     :     0.000004
      f+3     :     0.000024
      f-3     :    -0.000021

  6 C s       :    -0.013456  s :    -0.013456
      pz      :    -0.002747  p :    -0.027149
      px      :    -0.022067
      py      :    -0.002336
      dz2     :     0.000857  d :     0.022314
      dxz     :     0.004589
      dyz     :    -0.000122
      dx2y2   :     0.007221
      dxy     :     0.009770
      f0      :     0.000173  f :     0.001290
      f+1     :     0.000026
      f-1     :     0.000103
      f+2     :     0.000061
      f-2     :     0.000054
      f+3     :     0.000763
      f-3     :     0.000111

  7 C s       :     0.043906  s :     0.043906
      pz      :     0.152171  p :     0.779857
      px      :     0.074169
      py      :     0.553516
      dz2     :     0.001629  d :     0.003720
      dxz     :     0.001096
      dyz     :     0.000820
      dx2y2   :    -0.000568
      dxy     :     0.000743
      f0      :    -0.000137  f :    -0.001871
      f+1     :    -0.000033
      f-1     :    -0.000550
      f+2     :    -0.000427
      f-2     :    -0.000195
      f+3     :    -0.000295
      f-3     :    -0.000234

  8 C s       :    -0.006836  s :    -0.006836
      pz      :    -0.007446  p :    -0.007217
      px      :    -0.014354
      py      :     0.014583
      dz2     :     0.005144  d :     0.016008
      dxz     :    -0.000263
      dyz     :     0.001702
      dx2y2   :     0.000025
      dxy     :     0.009401
      f0      :     0.000164  f :     0.001711
      f+1     :     0.000493
      f-1     :     0.000026
      f+2     :     0.000031
      f-2     :     0.000685
      f+3     :    -0.000018
      f-3     :     0.000330

  9 C s       :    -0.000648  s :    -0.000648
      pz      :    -0.000017  p :    -0.001234
      px      :    -0.002925
      py      :     0.001708
      dz2     :    -0.000029  d :    -0.000112
      dxz     :    -0.000088
      dyz     :    -0.000023
      dx2y2   :     0.000056
      dxy     :    -0.000029
      f0      :    -0.000006  f :     0.000028
      f+1     :     0.000006
      f-1     :     0.000001
      f+2     :    -0.000002
      f-2     :    -0.000009
      f+3     :     0.000033
      f-3     :     0.000004

 10 F s       :     0.000033  s :     0.000033
      pz      :     0.000013  p :    -0.000016
      px      :     0.000007
      py      :    -0.000036
      dz2     :     0.000000  d :     0.000004
      dxz     :     0.000001
      dyz     :     0.000000
      dx2y2   :     0.000002
      dxy     :     0.000000
      f0      :     0.000000  f :     0.000000
      f+1     :     0.000000
      f-1     :     0.000000
      f+2     :     0.000000
      f-2     :     0.000000
      f+3     :     0.000000
      f-3     :     0.000000

 11 F s       :     0.000006  s :     0.000006
      pz      :    -0.000029  p :     0.000080
      px      :     0.000026
      py      :     0.000083
      dz2     :     0.000000  d :     0.000003
      dxz     :     0.000001
      dyz     :     0.000001
      dx2y2   :     0.000000
      dxy     :     0.000000
      f0      :     0.000000  f :     0.000000
      f+1     :     0.000000
      f-1     :     0.000000
      f+2     :     0.000000
      f-2     :     0.000000
      f+3     :     0.000000
      f-3     :     0.000000

 12 F s       :     0.000008  s :     0.000008
      pz      :     0.000017  p :    -0.000066
      px      :    -0.000006
      py      :    -0.000077
      dz2     :     0.000001  d :     0.000011
      dxz     :     0.000000
      dyz     :    -0.000000
      dx2y2   :     0.000003
      dxy     :     0.000007
      f0      :    -0.000000  f :     0.000000
      f+1     :     0.000000
      f-1     :    -0.000000
      f+2     :    -0.000000
      f-2     :    -0.000000
      f+3     :     0.000000
      f-3     :    -0.000000

 13 F s       :     0.000018  s :     0.000018
      pz      :    -0.000080  p :     0.000188
      px      :     0.000091
      py      :     0.000177
      dz2     :     0.000001  d :     0.000012
      dxz     :     0.000010
      dyz     :    -0.000001
      dx2y2   :    -0.000000
      dxy     :     0.000002
      f0      :     0.000000  f :     0.000000
      f+1     :     0.000000
      f-1     :    -0.000000
      f+2     :     0.000000
      f-2     :     0.000000
      f+3     :    -0.000000
      f-3     :     0.000000

 14 F s       :     0.000396  s :     0.000396
      pz      :     0.000828  p :     0.000306
      px      :    -0.000324
      py      :    -0.000197
      dz2     :     0.000000  d :     0.000064
[...]
 11:     57.20   0.000353    1.78  0.001925  (-0.018321  0.018572 -0.035280)
 12:     69.91   0.000078    0.39  0.000347  (-0.010671 -0.009074 -0.012267)
 13:     75.42   0.000066    0.33  0.000273  (-0.004053 -0.005376 -0.015097)
 14:    100.03   0.000324    1.64  0.001012  ( 0.025786 -0.010564  0.015341)
 15:    122.55   0.000305    1.54  0.000778  (-0.000842 -0.012187 -0.025069)
 16:    155.23   0.000072    0.36  0.000144  ( 0.004854 -0.010004  0.004487)
 17:    166.11   0.000122    0.62  0.000230  ( 0.008087  0.000261  0.012817)
 18:    187.70   0.000151    0.76  0.000252  (-0.007511  0.005080  0.013015)
 19:    201.19   0.001596    8.06  0.002475  ( 0.024733 -0.005020  0.042877)
 20:    206.10   0.001210    6.11  0.001832  ( 0.027413 -0.030337 -0.012648)
 21:    221.65   0.000205    1.04  0.000289  (-0.002398  0.012107 -0.011674)
 22:    240.08   0.000017    0.09  0.000022  (-0.004142 -0.002022  0.001034)
 23:    246.62   0.000094    0.47  0.000118  ( 0.006945 -0.002117 -0.008103)
 24:    260.71   0.000416    2.10  0.000498  ( 0.021412  0.006318 -0.000081)
 25:    278.82   0.000768    3.88  0.000860  (-0.026381  0.003832  0.012206)
 26:    290.56   0.000839    4.24  0.000901  ( 0.026651 -0.001464 -0.013732)
 27:    308.94   0.000008    0.04  0.000008  (-0.002042  0.001887  0.000772)
 28:    322.66   0.000038    0.19  0.000037  ( 0.003597  0.000076  0.004893)
 29:    342.09   0.000336    1.70  0.000307  (-0.015400 -0.003606 -0.007529)
 30:    355.94   0.000053    0.27  0.000046  ( 0.006151 -0.000422 -0.002884)
 31:    366.37   0.000295    1.49  0.000251  (-0.006697 -0.007971 -0.011957)
 32:    371.48   0.000221    1.12  0.000185  (-0.007870 -0.009370 -0.005972)
 33:    375.03   0.000634    3.21  0.000528  (-0.021344 -0.008348 -0.001610)
 34:    389.53   0.001217    6.15  0.000975  (-0.029238  0.009981  0.004534)
 35:    439.48   0.000030    0.15  0.000021  (-0.002635 -0.003624 -0.001131)
 36:    470.41   0.000619    3.13  0.000410  ( 0.007195 -0.008416 -0.016966)
 37:    499.06   0.004673   23.62  0.002922  (-0.035862 -0.036470  0.017496)
 38:    505.36   0.004560   23.04  0.002816  (-0.033812 -0.006816  0.040324)
 39:    524.72   0.007085   35.80  0.004214  (-0.061910  0.015768  0.011494)
 40:    542.48   0.002060   10.41  0.001185  (-0.031795 -0.006802 -0.011296)
 41:    564.09   0.013241   66.91  0.007325  (-0.001389 -0.054627  0.065871)
 42:    582.35   0.011268   56.94  0.006038  ( 0.062685 -0.028171  0.036263)
 43:    589.78   0.002038   10.30  0.001078  ( 0.030982 -0.005601 -0.009325)
 44:    597.62   0.003809   19.25  0.001989  ( 0.003757  0.009224 -0.043470)
 45:    628.77   0.056152  283.77  0.027868  ( 0.145425 -0.076124  0.030417)
 46:    643.99   0.004172   21.08  0.002022  (-0.018175 -0.006262  0.040647)
 47:    666.93   0.005595   28.28  0.002618  ( 0.042415  0.025924 -0.012130)
 48:    699.48   0.003872   19.57  0.001727  ( 0.031754  0.022909  0.013939)
 49:    711.61   0.014173   71.62  0.006215  ( 0.074485  0.022263 -0.013105)
 50:    753.78   0.005961   30.12  0.002468  (-0.001190  0.022208 -0.044421)
 51:    777.00   0.009491   47.96  0.003812  (-0.052454 -0.005275  0.032134)
 52:    871.99   0.006577   33.24  0.002354  (-0.019226 -0.015061  0.041919)
 53:    990.40   0.016596   83.87  0.005229  (-0.044430 -0.038073  0.042492)
 54:   1041.14   0.052730  266.48  0.015805  ( 0.053158 -0.113450  0.010404)
 55:   1097.02   0.020968  105.96  0.005965  (-0.058146  0.011855 -0.049428)
 56:   1103.28   0.062877  317.75  0.017785  ( 0.010411  0.119944 -0.057357)
 57:   1118.88   0.023524  118.88  0.006561  (-0.012620 -0.039358  0.069661)
 58:   1133.41   0.035682  180.32  0.009825  ( 0.044829 -0.004841 -0.088269)
 59:   1138.47   0.012226   61.78  0.003351  (-0.008528 -0.000293 -0.057257)
 60:   1141.53   0.091939  464.62  0.025134  ( 0.016071 -0.032996 -0.154229)
 61:   1151.58   0.241977  1222.85  0.065573  ( 0.000256 -0.191050 -0.170506)
 62:   1158.91   0.004264   21.55  0.001148  ( 0.025200  0.001397 -0.022612)
 63:   1169.57   0.069200  349.71  0.018464  ( 0.088028 -0.091542  0.048320)
 64:   1174.15   0.033222  167.89  0.008830  (-0.012548 -0.017943  0.091379)
 65:   1176.65   0.005624   28.42  0.001492  ( 0.018899  0.000060  0.033682)
 66:   1197.77   0.007935   40.10  0.002067  (-0.023103  0.038568  0.006791)
 67:   1247.81   0.011384   57.53  0.002847  (-0.042273 -0.022337  0.023688)
 68:   1267.96   0.049110  248.18  0.012087  ( 0.085447  0.024447 -0.064714)
 69:   1279.63   0.004495   22.71  0.001096  ( 0.029076  0.011818  0.010537)
 70:   1350.98   0.000885    4.47  0.000204  (-0.011441 -0.003697 -0.007734)
 71:   1392.20   0.016384   82.80  0.003673  (-0.056197  0.020794 -0.009060)
 72:   1405.03   0.016502   83.40  0.003665  ( 0.003479 -0.031559 -0.051547)
 73:   1822.05   0.094579  477.97  0.016199  (-0.047079 -0.095779 -0.069344)
 74:   3608.95   0.051011  257.79  0.004411  (-0.058712  0.005727  0.030512)

* The epsilon (eps) is given for a Dirac delta lineshape.
** The dipole moment derivative (T) already includes vibrational overlap.

The first frequency considered to be a vibration is 6
The total number of vibrations considered is 69


--------------------------
THERMOCHEMISTRY AT 298.15K
--------------------------

Temperature         ...   298.15 K
Pressure            ...     1.00 atm
Total Mass          ...   395.07 AMU
Quasi RRHO          ...     True
Cut-Off Frequency   ...     1.00 cm^-1

Throughout the following assumptions are being made:
  (1) The electronic state is orbitally nondegenerate
      but the spin degeneracy is treated
  (2) There are no thermally accessible electronically excited states
  (3) Hindered rotations indicated by low frequency modes are not
      treated as such but are treated as vibrations and this may
      cause some error
  (4) All equations used are the standard statistical mechanics
      equations for an ideal gas
  (5) All vibrations are strictly harmonic

freq.      13.30  E(vib)   ...       0.57 
freq.      23.45  E(vib)   ...       0.56 
freq.      35.12  E(vib)   ...       0.54 
freq.      41.83  E(vib)   ...       0.53 
freq.      43.71  E(vib)   ...       0.53 
freq.      57.20  E(vib)   ...       0.51 
freq.      69.91  E(vib)   ...       0.50 
freq.      75.42  E(vib)   ...       0.49 
freq.     100.03  E(vib)   ...       0.46 
freq.     122.55  E(vib)   ...       0.43 
freq.     155.23  E(vib)   ...       0.40 
freq.     166.11  E(vib)   ...       0.39 
freq.     187.70  E(vib)   ...       0.36 
freq.     201.19  E(vib)   ...       0.35 
freq.     206.10  E(vib)   ...       0.35 
freq.     221.65  E(vib)   ...       0.33 
freq.     240.08  E(vib)   ...       0.31 
freq.     246.62  E(vib)   ...       0.31 
freq.     260.71  E(vib)   ...       0.30 
freq.     278.82  E(vib)   ...       0.28 
freq.     290.56  E(vib)   ...       0.27 
freq.     308.94  E(vib)   ...       0.26 
freq.     322.66  E(vib)   ...       0.25 
freq.     342.09  E(vib)   ...       0.23 
freq.     355.94  E(vib)   ...       0.22 
freq.     366.37  E(vib)   ...       0.22 
freq.     371.48  E(vib)   ...       0.21 
freq.     375.03  E(vib)   ...       0.21 
freq.     389.53  E(vib)   ...       0.20 
freq.     439.48  E(vib)   ...       0.17 
freq.     470.41  E(vib)   ...       0.15 
freq.     499.06  E(vib)   ...       0.14 
freq.     505.36  E(vib)   ...       0.14 
freq.     524.72  E(vib)   ...       0.13 
freq.     542.48  E(vib)   ...       0.12 
freq.     564.09  E(vib)   ...       0.11 
freq.     582.35  E(vib)   ...       0.11 
freq.     589.78  E(vib)   ...       0.10 
freq.     597.62  E(vib)   ...       0.10 
freq.     628.77  E(vib)   ...       0.09 
freq.     643.99  E(vib)   ...       0.09 
freq.     666.93  E(vib)   ...       0.08 
freq.     699.48  E(vib)   ...       0.07 
freq.     711.61  E(vib)   ...       0.07 
freq.     753.78  E(vib)   ...       0.06 
freq.     777.00  E(vib)   ...       0.05 
freq.     871.99  E(vib)   ...       0.04 
freq.     990.40  E(vib)   ...       0.02 
freq.    1041.14  E(vib)   ...       0.02 
freq.    1097.02  E(vib)   ...       0.02 
freq.    1103.28  E(vib)   ...       0.02 
freq.    1118.88  E(vib)   ...       0.01 
freq.    1133.41  E(vib)   ...       0.01 
freq.    1138.47  E(vib)   ...       0.01 
freq.    1141.53  E(vib)   ...       0.01 
freq.    1151.58  E(vib)   ...       0.01 
freq.    1158.91  E(vib)   ...       0.01 
freq.    1169.57  E(vib)   ...       0.01 
freq.    1174.15  E(vib)   ...       0.01 
freq.    1176.65  E(vib)   ...       0.01 
freq.    1197.77  E(vib)   ...       0.01 
freq.    1247.81  E(vib)   ...       0.01 
freq.    1267.96  E(vib)   ...       0.01 
freq.    1279.63  E(vib)   ...       0.01 
freq.    1350.98  E(vib)   ...       0.01 
freq.    1392.20  E(vib)   ...       0.00 
freq.    1405.03  E(vib)   ...       0.00 
freq.    1822.05  E(vib)   ...       0.00 
freq.    3608.95  E(vib)   ...       0.00 

------------
INNER ENERGY
------------

The inner energy is: U= E(el) + E(ZPE) + E(vib) + E(rot) + E(trans)
    E(el)   - is the total energy from the electronic structure calculation
              = E(kin-el) + E(nuc-el) + E(el-el) + E(nuc-nuc)
    E(ZPE)  - the the zero temperature vibrational energy from the frequency calculation
    E(vib)  - the the finite temperature correction to E(ZPE) due to population
              of excited vibrational states
    E(rot)  - is the rotational thermal energy
    E(trans)- is the translational thermal energy

Summary of contributions to the inner energy U:
Electronic energy                ...  -1853.73672787 Eh
Zero point energy                ...      0.10503618 Eh      65.91 kcal/mol
Thermal vibrational correction   ...      0.02016556 Eh      12.65 kcal/mol
Thermal rotational correction    ...      0.00141627 Eh       0.89 kcal/mol
Thermal translational correction ...      0.00141627 Eh       0.89 kcal/mol
-----------------------------------------------------------------------
Total thermal energy                  -1853.60869359 Eh


Summary of corrections to the electronic energy:
(perhaps to be used in another calculation)
Total thermal correction                  0.02299810 Eh      14.43 kcal/mol
Non-thermal (ZPE) correction              0.10503618 Eh      65.91 kcal/mol
-----------------------------------------------------------------------
Total correction                          0.12803428 Eh      80.34 kcal/mol


--------
ENTHALPY
--------

The enthalpy is H = U + kB*T
                kB is Boltzmann's constant
Total thermal energy              ...  -1853.60869359 Eh 
Thermal Enthalpy correction       ...      0.00094421 Eh       0.59 kcal/mol
-----------------------------------------------------------------------
Total Enthalpy                    ...  -1853.60774938 Eh


Note: Only C1 symmetry has been detected, increase convergence thresholds 
      if your molecule has a higher symmetry. Symmetry factor of 1.0 is   
      used for the rotational entropy correction. 
 

Note: Rotational entropy computed according to Herzberg 
Infrared and Raman Spectra, Chapter V,1, Van Nostrand Reinhold, 1945 
Point Group:  C1, Symmetry Number:   1  
Rotational constants in cm-1:     0.020089     0.004066     0.004020 

Vibrational entropy computed according to the QRRHO of S. Grimme
Chem.Eur.J. 2012 18 9955 using a reference frequency of 100.0 cm-1


-------
ENTROPY
-------

The entropy contributions are T*S = T*(S(el)+S(vib)+S(rot)+S(trans))
     S(el)   - electronic entropy
     S(vib)  - vibrational entropy
     S(rot)  - rotational entropy
     S(trans)- translational entropy
The entropies will be listed as multiplied by the temperature to get
units of energy

Electronic entropy                ...      0.00065446 Eh      0.41 kcal/mol
Vibrational entropy               ...      0.03665998 Eh     23.00 kcal/mol
Rotational entropy                ...      0.01655864 Eh     10.39 kcal/mol
Translational entropy             ...      0.02081703 Eh     13.06 kcal/mol
-----------------------------------------------------------------------
Final entropy term                ...      0.07469011 Eh     46.87 kcal/mol

In case the symmetry of your molecule has not been determined correctly
or in case you have a reason to use a different symmetry number we print 
out the resulting rotational entropy values for sn=1,12:

 non-linear molecules -----------------------------------
|  sn= 1 | S(rot)=       0.01655864 Eh     10.39 kcal/mol|
|  sn= 2 | S(rot)=       0.01590419 Eh      9.98 kcal/mol|
|  sn= 3 | S(rot)=       0.01552136 Eh      9.74 kcal/mol|
|  sn= 4 | S(rot)=       0.01524973 Eh      9.57 kcal/mol|
|  sn= 5 | S(rot)=       0.01503904 Eh      9.44 kcal/mol|
|  sn= 6 | S(rot)=       0.01486690 Eh      9.33 kcal/mol|
|  sn= 7 | S(rot)=       0.01472135 Eh      9.24 kcal/mol|
|  sn= 8 | S(rot)=       0.01459528 Eh      9.16 kcal/mol|
|  sn= 9 | S(rot)=       0.01448407 Eh      9.09 kcal/mol|
|  sn=10 | S(rot)=       0.01438459 Eh      9.03 kcal/mol|
|  sn=11 | S(rot)=       0.01429460 Eh      8.97 kcal/mol|
|  sn=12 | S(rot)=       0.01421244 Eh      8.92 kcal/mol|
 linear molecules ---------------------------------------
|  Dinfh | S(rot)=       0.01053430 Eh      6.61 kcal/mol|
|  Cinfv | S(rot)=       0.01118875 Eh      7.02 kcal/mol|
 --------------------------------------------------------


-------------------
GIBBS FREE ENERGY
-------------------

The Gibbs free energy is G = H - T*S

Total enthalpy                    ...  -1853.60774938 Eh 
Total entropy correction          ...     -0.07469011 Eh    -46.87 kcal/mol
-----------------------------------------------------------------------
Final Gibbs free energy         ...  -1853.68243949 Eh

For completeness - the Gibbs free energy minus the electronic energy
G-E(el)                           ...      0.05428838 Eh     34.07 kcal/mol


Maximum memory used throughout the entire PROP-calculation: 546.0 MB

--------------------------------
SUGGESTED CITATIONS FOR THIS RUN
--------------------------------

Below you find a list of papers that are relevant to this ORCA run
We neither can nor want to force you to cite these papers, but we appreciate if you do
You receive ORCA, which is the product of decades of hard work by many enthusiastic individuals, for free
The only thing we kindly ask in return is that you cite our papers,
We deeply appreciate it, if you show your appreciation for ORCA by not just citing the generic ORCA reference.

Please note that relegating all ORCA citations to the supporting information does *not* help us.
SI sections are not indexed - citations you put there will not count into any citation statistics
But we need these citations in order to attract the funding resources that allow us to do what we are doing

Therefore, if you are a happy ORCA user, please consider citing a few of the papers listed below in the main body of your paper

In addition to the list printed below, the program has created the file rf_mecn_freq_B3L_C6_P_B.bibtex that contains the list in bibtex format
You can import this file easily into all common literature databanks and citation aid programs


List of essential papers. We consider these as the minimum necessary citations

  1. Neese,F.
     Software update: the ORCA program system, version 5.0
     WIRES Comput. Molec. Sci., 2022 12(1)e1606
     doi.org/10.1002/wcms.1606

List of papers to cite with high priority. The work reported in these papers was absolutely
necessary for this run to complete.
Our perspective: the developers of density functionals and basis sets usually get cited in chemistry papers
Good! But without the algorithms to do something with them, the functionals or basis sets would not do anything.
Hence, in our opinion, the algorithm design and method developments papers are equally worthy of getting cited

  1. Neese,F.
     An improvement of the resolution of the identity approximation for the formation of the Coulomb matrix
     J. Comp. Chem., 2003 24(14)1740-1747
     doi.org/10.1002/jcc.10318
  2. Neese,F.; Wennmohs,F.; Hansen,A.; Becker,U.
     Efficient, approximate and parallel Hartree-Fock and hybrid DFT calculations. A 'chain-of-spheres' algorithm for the Hartree-Fock exchange
     Chem. Phys., 2009 356(1-3)98-109
     doi.org/10.1016/j.chemphys.2008.10.036
  3. Bykov,D.; Petrenko,T.; Izsak,R.; Kossmann,S.; Becker,U.; Valeev,E.; Neese,F.
     Efficient implementation of the analytic second derivatives of Hartree-Fock and hybrid DFT energies: a detailed analysis of different approximations
     Molec. Phys., 2015 113 1961-1977
     doi.org/10.1080/00268976.2015.1025114
  4. Garcia-Rates,M.; Neese,F.
     Efficient implementation of the analytical second derivatives of hartree-fock and hybrid DFT energies within the framework of the conductor-like polarizable continuum model
     J. Comput. Chem., 2019 40 1816-1828
     doi.org/10.1002/jcc.25833
  5. Garcia-Rates,M.; Neese,F.
     Effect of the Solute Cavity on the Solvation Energy and its Derivatives within the Framework of the Gaussian Charge Scheme
     J. Comput. Chem., 2020 41 922-939
     doi.org/10.1002/jcc.26139
  6. Helmich-Paris,B.; de Souza,B.; Neese,F.; Izsák,R.
     An improved chain of spheres for exchange algorithm
     J. Chem. Phys., 2021 155 104109
     doi.org/doi: 10.1063/5.0058766.
  7. Neese,F.
     The SHARK Integral Generation and Digestion System
     J. Comp. Chem., 2022  1-16
     doi.org/10.1002/jcc.26942
  8. Grimme,S.; Antony,J.; Ehrlich,S.; Krieg,H.
     A consistent and accurate ab initio parametrization of density functional dispersion correction (DFT-D) for the 94 elements H-Pu
     J. Chem. Phys., 2010 132 154104
     doi.org/10.1063/1.3382344
  9. Grimme,S.; Ehrlich,S.; Goerigk,L.
     Effect of the damping function in dispersion corrected density functional theory
     J. Comput. Chem., 2011 32(7)1456-1465
     doi.org/10.1002/jcc.21759

List of suggested additional citations. These are papers that are important in the 'surrounding' of 
of this run, or papers that preceded the highly important papers. If you like your results we are grateful for a citation.

  1. Izsak,R.; Neese,F.
     An overlap fitted chain of spheres exchange method
     J. Chem. Phys., 2011 135 144105
     doi.org/10.1063/1.3646921
  2. Izsak,R.; Hansen,A.; Neese,F.
     The resolution of identity and chain of spheres approximations for the LPNO-CCSD singles Fock term
     Molec. Phys., 2012 110 2413-2417
     doi.org/10.1080/00268976.2012.687466
  3. Neese,F.
     The ORCA program system
     WIRES Comput. Molec. Sci., 2012 2(1)73-78
     doi.org/10.1002/wcms.81
  4. Izsak,R.; Neese,F.; Klopper,W.
     Robust fitting techniques in the chain of spheres approximation to the Fock exchange: The role of the complementary space
     J. Chem. Phys., 2013 139 
     doi.org/10.1063/1.4819264
  5. Neese,F.
     Software update: the ORCA program system, version 4.0
     WIRES Comput. Molec. Sci., 2018 8(1)1-6
     doi.org/10.1002/wcms.1327
  6. Neese,F.; Wennmohs,F.; Becker,U.; Riplinger,C.
     The ORCA quantum chemistry program package
     J. Chem. Phys., 2020 152 Art. No. L224108
     doi.org/10.1063/5.0004608

List of optional additional citations

  1. Neese,F.
     Approximate second-order SCF convergence for spin unrestricted wavefunctions
     Chem. Phys. Lett., 2000 325(1-3)93-98
     doi.org/10.1016/s0009-2614(00)00662-x

Timings for individual modules:

Sum of individual times          ...     1176.272 sec (=  19.605 min)
Startup calculation              ...        4.377 sec (=   0.073 min)   0.4 %
SCF iterations                   ...       96.160 sec (=   1.603 min)   8.2 %
Property integrals               ...      261.084 sec (=   4.351 min)  22.2 %
SCF Response                     ...      542.852 sec (=   9.048 min)  46.2 %
Property calculations            ...      271.799 sec (=   4.530 min)  23.1 %
                             ****ORCA TERMINATED NORMALLY****
TOTAL RUN TIME: 0 days 0 hours 19 minutes 37 seconds 281 msec
