
                                 *****************
                                 * O   R   C   A *
                                 *****************

                                            #,                                       
                                            ###                                      
                                            ####                                     
                                            #####                                    
                                            ######                                   
                                           ########,                                 
                                     ,,################,,,,,                         
                               ,,#################################,,                 
                          ,,##########################################,,             
                       ,#########################################, ''#####,          
                    ,#############################################,,   '####,        
                  ,##################################################,,,,####,       
                ,###########''''           ''''###############################       
              ,#####''   ,,,,##########,,,,          '''####'''          '####       
            ,##' ,,,,###########################,,,                        '##       
           ' ,,###''''                  '''############,,,                           
         ,,##''                                '''############,,,,        ,,,,,,###''
      ,#''                                            '''#######################'''  
     '                                                          ''''####''''         
             ,#######,   #######,   ,#######,      ##                                
            ,#'     '#,  ##    ##  ,#'     '#,    #''#        ######   ,####,        
            ##       ##  ##   ,#'  ##            #'  '#       #        #'  '#        
            ##       ##  #######   ##           ,######,      #####,   #    #        
            '#,     ,#'  ##    ##  '#,     ,#' ,#      #,         ##   #,  ,#        
             '#######'   ##     ##  '#######'  #'      '#     #####' # '####'        



                  #######################################################
                  #                        -***-                        #
                  #          Department of theory and spectroscopy      #
                  #    Directorship and core code : Frank Neese         #
                  #        Max Planck Institute fuer Kohlenforschung    #
                  #                Kaiser Wilhelm Platz 1               #
                  #                 D-45470 Muelheim/Ruhr               #
                  #                      Germany                        #
                  #                                                     #
                  #                  All rights reserved                #
                  #                        -***-                        #
                  #######################################################


                         Program Version 5.0.3 -  RELEASE  -


 With contributions from (in alphabetic order):
   Daniel Aravena         : Magnetic Suceptibility
   Michael Atanasov       : Ab Initio Ligand Field Theory (pilot matlab implementation)
   Alexander A. Auer      : GIAO ZORA, VPT2 properties, NMR spectrum
   Ute Becker             : Parallelization
   Giovanni Bistoni       : ED, misc. LED, open-shell LED, HFLD
   Martin Brehm           : Molecular dynamics
   Dmytro Bykov           : SCF Hessian
   Vijay G. Chilkuri      : MRCI spin determinant printing, contributions to CSF-ICE
   Dipayan Datta          : RHF DLPNO-CCSD density
   Achintya Kumar Dutta   : EOM-CC, STEOM-CC
   Dmitry Ganyushin       : Spin-Orbit,Spin-Spin,Magnetic field MRCI
   Miquel Garcia          : C-PCM and meta-GGA Hessian, CC/C-PCM, Gaussian charge scheme
   Yang Guo               : DLPNO-NEVPT2, F12-NEVPT2, CIM, IAO-localization
   Andreas Hansen         : Spin unrestricted coupled pair/coupled cluster methods
   Benjamin Helmich-Paris : MC-RPA, TRAH-SCF, COSX integrals
   Lee Huntington         : MR-EOM, pCC
   Robert Izsak           : Overlap fitted RIJCOSX, COSX-SCS-MP3, EOM
   Marcus Kettner         : VPT2
   Christian Kollmar      : KDIIS, OOCD, Brueckner-CCSD(T), CCSD density, CASPT2, CASPT2-K
   Simone Kossmann        : Meta GGA functionals, TD-DFT gradient, OOMP2, MP2 Hessian
   Martin Krupicka        : Initial AUTO-CI
   Lucas Lang             : DCDCAS
   Marvin Lechner         : AUTO-CI (C++ implementation), FIC-MRCC
   Dagmar Lenk            : GEPOL surface, SMD
   Dimitrios Liakos       : Extrapolation schemes; Compound Job, initial MDCI parallelization
   Dimitrios Manganas     : Further ROCIS development; embedding schemes
   Dimitrios Pantazis     : SARC Basis sets
   Anastasios Papadopoulos: AUTO-CI, single reference methods and gradients
   Taras Petrenko         : DFT Hessian,TD-DFT gradient, ASA, ECA, R-Raman, ABS, FL, XAS/XES, NRVS
   Peter Pinski           : DLPNO-MP2, DLPNO-MP2 Gradient
   Christoph Reimann      : Effective Core Potentials
   Marius Retegan         : Local ZFS, SOC
   Christoph Riplinger    : Optimizer, TS searches, QM/MM, DLPNO-CCSD(T), (RO)-DLPNO pert. Triples
   Tobias Risthaus        : Range-separated hybrids, TD-DFT gradient, RPA, STAB
   Michael Roemelt        : Original ROCIS implementation
   Masaaki Saitow         : Open-shell DLPNO-CCSD energy and density
   Barbara Sandhoefer     : DKH picture change effects
   Avijit Sen             : IP-ROCIS
   Kantharuban Sivalingam : CASSCF convergence, NEVPT2, FIC-MRCI
   Bernardo de Souza      : ESD, SOC TD-DFT
   Georgi Stoychev        : AutoAux, RI-MP2 NMR, DLPNO-MP2 response
   Willem Van den Heuvel  : Paramagnetic NMR
   Boris Wezisla          : Elementary symmetry handling
   Frank Wennmohs         : Technical directorship


 We gratefully acknowledge several colleagues who have allowed us to
 interface, adapt or use parts of their codes:
   Stefan Grimme, W. Hujo, H. Kruse, P. Pracht,  : VdW corrections, initial TS optimization,
                  C. Bannwarth, S. Ehlert          DFT functionals, gCP, sTDA/sTD-DF
   Ed Valeev, F. Pavosevic, A. Kumar             : LibInt (2-el integral package), F12 methods
   Garnet Chan, S. Sharma, J. Yang, R. Olivares  : DMRG
   Ulf Ekstrom                                   : XCFun DFT Library
   Mihaly Kallay                                 : mrcc  (arbitrary order and MRCC methods)
   Jiri Pittner, Ondrej Demel                    : Mk-CCSD
   Frank Weinhold                                : gennbo (NPA and NBO analysis)
   Christopher J. Cramer and Donald G. Truhlar   : smd solvation model
   Lars Goerigk                                  : TD-DFT with DH, B97 family of functionals
   V. Asgeirsson, H. Jonsson                     : NEB implementation
   FAccTs GmbH                                   : IRC, NEB, NEB-TS, DLPNO-Multilevel, CI-OPT
                                                   MM, QMMM, 2- and 3-layer-ONIOM, Crystal-QMMM,
                                                   LR-CPCM, SF, NACMEs, symmetry and pop. for TD-DFT,
                                                   nearIR, NL-DFT gradient (VV10), updates on ESD,
                                                   ML-optimized integration grids
   S Lehtola, MJT Oliveira, MAL Marques          : LibXC Library
   Liviu Ungur et al                             : ANISO software


 Your calculation uses the libint2 library for the computation of 2-el integrals
 For citations please refer to: http://libint.valeyev.net

 Your ORCA version has been built with support for libXC version: 5.1.0
 For citations please refer to: https://tddft.org/programs/libxc/

 This ORCA versions uses:
   CBLAS   interface :  Fast vector & matrix operations
   LAPACKE interface :  Fast linear algebra routines
   SCALAPACK package :  Parallel linear algebra routines
   Shared memory     :  Shared parallel matrices
   BLAS/LAPACK       :  OpenBLAS 0.3.15  USE64BITINT DYNAMIC_ARCH NO_AFFINITY SkylakeX SINGLE_THREADED
        Core in use  :  SkylakeX
   Copyright (c) 2011-2014, The OpenBLAS Project


Your calculation utilizes the atom-pairwise dispersion correction
with the Becke-Johnson damping scheme (D3BJ)
Cite in your paper:
S.Grimme, S.Ehrlich, L.Goerigk, J Comput Chem, (2011), 32, 1456–1465 
S.Grimme, J.Antony, S.Ehrlich and H.Krieg, J.Chem.Phys., 132, (2010), 154104 
   

Your calculation utilizes the SMD solvation module
Please cite in your paper:
A.V. Marenich, C.J. Cramer, D.G. Truhlar J. Phys. Chem. B, 113, (2009), 6378 

================================================================================

----- Orbital basis set information -----
Your calculation utilizes the basis: def2-TZVP
   F. Weigend and R. Ahlrichs, Phys. Chem. Chem. Phys. 7, 3297 (2005).

----- AuxJ basis set information -----
Your calculation utilizes the auxiliary basis: def2/J
   F. Weigend, Phys. Chem. Chem. Phys. 8, 1057 (2006).

================================================================================
                                        WARNINGS
                       Please study these warnings very carefully!
================================================================================


WARNING: Geometry Optimization
  ===> : Switching off AutoStart
         For restart on a previous wavefunction, please use MOREAD

INFO   : the flag for use of the SHARK integral package has been found!

================================================================================
                                       INPUT FILE
================================================================================
NAME = rf_mecn_opt_B2L_D_B_01.inp
|  1> !B3LYP def2-TZVP opt d3 TightSCF SlowConv defgrid2
|  2>  
|  3> %pal
|  4> nprocs 20
|  5> end
|  6>  
|  7> %scf
|  8> MaxIter 1500
|  9> end
| 10>  
| 11> %maxcore 8000
| 12>  
| 13> !CPCM
| 14> %cpcm smd true
| 15> SMDsolvent "ACETONITRILE"
| 16> end
| 17>  
| 18> * xyz -1 1
| 19> 6        4.790427000     -0.033865800     -0.529943200
| 20> 8        5.449345000     -1.206924000     -0.894594600
| 21> 8        4.978223000      1.323071000     -0.737377200
| 22> 6        3.506687600     -0.338741600      0.376153800
| 23> 6        2.222300000      0.400524800     -0.110681600
| 24> 6        0.900506800     -0.386389800      0.175703000
| 25> 6       -0.395261200      0.487294000      0.065549000
| 26> 6       -1.705693600     -0.364773800     -0.068373600
| 27> 6       -3.005136200      0.445344800      0.258164000
| 28> 6       -4.319880200     -0.214526000     -0.270540800
| 29> 9        3.211587400     -1.692050400      0.412735200
| 30> 9        3.741061800      0.055285800      1.689948800
| 31> 9        2.125696800      1.616867800      0.483236600
| 32> 9        2.314152400      0.589704000     -1.455769200
| 33> 9        0.794028800     -1.413561400     -0.700839000
| 34> 9        0.958350600     -0.884509000      1.435093400
| 35> 9       -0.498373400      1.260265600      1.173340200
| 36> 9       -0.299075000      1.289512600     -1.020910800
| 37> 9       -1.641790400     -1.418189000      0.779523800
| 38> 9       -1.792381400     -0.831391600     -1.336863600
| 39> 9       -2.918792200      1.679227200     -0.295171200
| 40> 9       -3.119771000      0.573779800      1.598579800
| 41> 9       -4.383115600     -1.504377600      0.089127600
| 42> 9       -5.365669800      0.430528600      0.260394200
| 43> 9       -4.396020400     -0.128550600     -1.602941800
| 44> *
| 45> 
| 46>                          ****END OF INPUT****
================================================================================

                       *****************************
                       * Geometry Optimization Run *
                       *****************************

Geometry optimization settings:
Update method            Update   .... BFGS
Choice of coordinates    CoordSys .... Z-matrix Internals
Initial Hessian          InHess   .... Almoef's Model

Convergence Tolerances:
Energy Change            TolE     ....  5.0000e-06 Eh
Max. Gradient            TolMAXG  ....  3.0000e-04 Eh/bohr
RMS Gradient             TolRMSG  ....  1.0000e-04 Eh/bohr
Max. Displacement        TolMAXD  ....  4.0000e-03 bohr
RMS Displacement         TolRMSD  ....  2.0000e-03 bohr
Strict Convergence                ....  False
------------------------------------------------------------------------------
                        ORCA OPTIMIZATION COORDINATE SETUP
------------------------------------------------------------------------------

The optimization will be done in new redundant internal coordinates
Making redundant internal coordinates   ...  (new redundants) done
Evaluating the initial hessian          ...  (Almloef) done
Evaluating the coordinates              ...  done
Calculating the B-matrix                .... done
Calculating the G-matrix                .... done
Diagonalizing the G-matrix              .... done
Small eigenvalue found = 5.721e-03
Small eigenvalue found = 1.636e-02
The first mode is                       ....   60
The number of degrees of freedom        ....   69

    -----------------------------------------------------------------
                    Redundant Internal Coordinates


    -----------------------------------------------------------------
         Definition                    Initial Value    Approx d2E/dq
    -----------------------------------------------------------------
      1. B(O   1,C   0)                  1.3940         0.551454   
      2. B(O   2,C   0)                  1.3855         0.568952   
      3. B(C   3,C   0)                  1.6006         0.288221   
      4. B(C   4,C   3)                  1.5599         0.334759   
      5. B(C   5,C   4)                  1.5647         0.328824   
      6. B(C   6,C   5)                  1.5667         0.326486   
      7. B(C   7,C   6)                  1.5688         0.323927   
      8. B(C   8,C   7)                  1.5657         0.327637   
      9. B(C   9,C   8)                  1.5632         0.330714   
     10. B(F  10,C   3)                  1.3856         0.528443   
     11. B(F  11,C   3)                  1.3915         0.517117   
     12. B(F  12,C   4)                  1.3570         0.586881   
     13. B(F  13,C   4)                  1.3614         0.577499   
     14. B(F  14,C   5)                  1.3545         0.592326   
     15. B(F  15,C   5)                  1.3556         0.590092   
     16. B(F  16,C   6)                  1.3547         0.591865   
     17. B(F  17,C   6)                  1.3540         0.593567   
     18. B(F  18,C   7)                  1.3538         0.593973   
     19. B(F  19,C   7)                  1.3544         0.592672   
     20. B(F  20,C   8)                  1.3550         0.591238   
     21. B(F  21,C   8)                  1.3514         0.599114   
     22. B(F  22,C   9)                  1.3406         0.623533   
     23. B(F  23,C   9)                  1.3385         0.628179   
     24. B(F  24,C   9)                  1.3373         0.630929   
     25. A(O   1,C   0,C   3)          111.5249         0.369222   
     26. A(O   1,C   0,O   2)          136.1318         0.413163   
     27. A(O   2,C   0,C   3)          112.3347         0.371210   
     28. A(C   0,C   3,F  10)          111.8265         0.364982   
     29. A(C   4,C   3,F  11)          107.4072         0.373095   
     30. A(F  10,C   3,F  11)          106.7094         0.399684   
     31. A(C   0,C   3,C   4)          113.1687         0.341363   
     32. A(C   0,C   3,F  11)          110.2099         0.363632   
     33. A(C   4,C   3,F  10)          107.2033         0.374492   
     34. A(C   3,C   4,F  12)          110.2926         0.381351   
     35. A(F  12,C   4,F  13)          108.2194         0.415201   
     36. A(C   3,C   4,C   5)          113.5839         0.349005   
     37. A(C   5,C   4,F  13)          107.9208         0.379109   
     38. A(C   3,C   4,F  13)          108.5818         0.380286   
     39. A(C   5,C   4,F  12)          108.0911         0.380169   
     40. A(F  14,C   5,F  15)          109.0206         0.417483   
     41. A(C   4,C   5,C   6)          113.9128         0.347536   
     42. A(C   6,C   5,F  15)          107.7906         0.380059   
     43. A(C   4,C   5,F  15)          108.5900         0.380529   
     44. A(C   6,C   5,F  14)          108.2026         0.380308   
     45. A(C   4,C   5,F  14)          109.2282         0.380779   
     46. A(C   5,C   6,C   7)          113.2023         0.346660   
     47. A(F  16,C   6,F  17)          108.8752         0.417862   
     48. A(C   7,C   6,F  17)          108.2186         0.379927   
     49. A(C   5,C   6,F  17)          109.1523         0.380446   
     50. A(C   7,C   6,F  16)          108.4284         0.379738   
     51. A(C   5,C   6,F  16)          108.8835         0.380256   
     52. A(C   8,C   7,F  18)          108.1296         0.380723   
     53. A(C   6,C   7,F  18)          109.2524         0.379972   
     54. A(F  18,C   7,F  19)          108.7561         0.418014   
     55. A(C   6,C   7,C   8)          113.2298         0.346865   
     56. A(C   8,C   7,F  19)          108.6915         0.380579   
     57. A(C   6,C   7,F  19)          108.6955         0.379828   
     58. A(C   9,C   8,F  21)          107.7127         0.381912   
     59. A(C   7,C   8,F  21)          109.0521         0.381293   
     60. A(C   9,C   8,F  20)          107.4499         0.381036   
     61. A(C   7,C   8,C   9)          114.1471         0.348078   
     62. A(F  20,C   8,F  21)          108.8987         0.418476   
     63. A(C   7,C   8,F  20)          109.4572         0.380419   
     64. A(F  23,C   9,F  24)          108.6464         0.426961   
     65. A(F  22,C   9,F  24)          109.0552         0.426394   
     66. A(C   8,C   9,F  24)          110.9604         0.385362   
     67. A(F  22,C   9,F  23)          108.6877         0.426061   
     68. A(C   8,C   9,F  23)          108.6349         0.385069   
     69. A(C   8,C   9,F  22)          110.7995         0.384572   
     70. D(F  11,C   3,C   0,O   1)    108.6317         0.006601   
     71. D(F  10,C   3,C   0,O   2)    171.0025         0.006601   
     72. D(C   4,C   3,C   0,O   1)   -131.0839         0.006601   
     73. D(C   4,C   3,C   0,O   2)     49.8076         0.006601   
     74. D(F  10,C   3,C   0,O   1)     -9.8890         0.006601   
     75. D(F  11,C   3,C   0,O   2)    -70.4768         0.006601   
     76. D(C   5,C   4,C   3,C   0)    148.6429         0.009100   
     77. D(F  12,C   4,C   3,F  10)    146.3851         0.009100   
     78. D(F  13,C   4,C   3,F  10)    -95.1911         0.009100   
     79. D(C   5,C   4,C   3,F  10)     24.8733         0.009100   
     80. D(F  13,C   4,C   3,C   0)     28.5784         0.009100   
     81. D(F  13,C   4,C   3,F  11)    150.4470         0.009100   
     82. D(F  12,C   4,C   3,F  11)     32.0233         0.009100   
     83. D(F  12,C   4,C   3,C   0)    -89.8453         0.009100   
     84. D(C   5,C   4,C   3,F  11)    -89.4885         0.009100   
     85. D(F  15,C   5,C   4,C   3)     43.8158         0.008811   
     86. D(F  14,C   5,C   4,F  12)    162.3014         0.008811   
     87. D(F  14,C   5,C   4,C   3)    -74.9661         0.008811   
     88. D(C   6,C   5,C   4,F  13)    -75.6292         0.008811   
     89. D(F  14,C   5,C   4,F  13)     45.4721         0.008811   
     90. D(C   6,C   5,C   4,F  12)     41.2001         0.008811   
     91. D(F  15,C   5,C   4,F  12)    -78.9166         0.008811   
     92. D(F  15,C   5,C   4,F  13)    164.2540         0.008811   
     93. D(C   6,C   5,C   4,C   3)    163.9326         0.008811   
     94. D(F  16,C   6,C   5,F  15)     44.2190         0.008700   
     95. D(F  16,C   6,C   5,C   4)    -76.3465         0.008700   
     96. D(C   7,C   6,C   5,F  15)    -76.4529         0.008700   
     97. D(C   7,C   6,C   5,F  14)     41.3107         0.008700   
     98. D(F  16,C   6,C   5,F  14)    161.9826         0.008700   
     99. D(F  17,C   6,C   5,C   4)     42.3872         0.008700   
    100. D(C   7,C   6,C   5,C   4)    162.9815         0.008700   
    101. D(F  17,C   6,C   5,F  15)    162.9527         0.008700   
    102. D(F  17,C   6,C   5,F  14)    -79.2837         0.008700   
    103. D(F  19,C   7,C   6,F  17)     44.3783         0.008578   
    104. D(F  19,C   7,C   6,F  16)    162.3257         0.008578   
    105. D(F  19,C   7,C   6,C   5)    -76.7446         0.008578   
    106. D(F  18,C   7,C   6,F  17)    162.9167         0.008578   
    107. D(F  18,C   7,C   6,F  16)    -79.1358         0.008578   
    108. D(F  18,C   7,C   6,C   5)     41.7939         0.008578   
    109. D(C   8,C   7,C   6,F  17)    -76.5134         0.008578   
    110. D(C   8,C   7,C   6,F  16)     41.4341         0.008578   
    111. D(C   8,C   7,C   6,C   5)    162.3638         0.008578   
    112. D(F  21,C   8,C   7,F  19)    162.0243         0.008755   
    113. D(F  21,C   8,C   7,F  18)     44.1231         0.008755   
    114. D(F  21,C   8,C   7,C   6)    -77.0818         0.008755   
    115. D(F  20,C   8,C   7,F  19)    -78.9355         0.008755   
    116. D(F  20,C   8,C   7,F  18)    163.1633         0.008755   
    117. D(F  20,C   8,C   7,C   6)     41.9584         0.008755   
    118. D(C   9,C   8,C   7,F  19)     41.5227         0.008755   
    119. D(C   9,C   8,C   7,F  18)    -76.3785         0.008755   
    120. D(C   9,C   8,C   7,C   6)    162.4166         0.008755   
    121. D(F  24,C   9,C   8,F  21)    167.4828         0.008903   
    122. D(F  24,C   9,C   8,C   7)    -71.2711         0.008903   
    123. D(F  23,C   9,C   8,F  21)     48.1091         0.008903   
    124. D(F  23,C   9,C   8,F  20)    -69.0724         0.008903   
    125. D(F  23,C   9,C   8,C   7)    169.3552         0.008903   
    126. D(F  22,C   9,C   8,F  21)    -71.2185         0.008903   
    127. D(F  24,C   9,C   8,F  20)     50.3013         0.008903   
    128. D(F  22,C   9,C   8,F  20)    171.5999         0.008903   
    129. D(F  22,C   9,C   8,C   7)     50.0276         0.008903   
    -----------------------------------------------------------------

Number of atoms                         .... 25
Number of degrees of freedom            .... 129

         *************************************************************
         *                GEOMETRY OPTIMIZATION CYCLE   1            *
         *************************************************************
---------------------------------
CARTESIAN COORDINATES (ANGSTROEM)
---------------------------------
  C      4.790427   -0.033866   -0.529943
  O      5.449345   -1.206924   -0.894595
  O      4.978223    1.323071   -0.737377
  C      3.506688   -0.338742    0.376154
  C      2.222300    0.400525   -0.110682
  C      0.900507   -0.386390    0.175703
  C     -0.395261    0.487294    0.065549
  C     -1.705694   -0.364774   -0.068374
  C     -3.005136    0.445345    0.258164
  C     -4.319880   -0.214526   -0.270541
  F      3.211587   -1.692050    0.412735
  F      3.741062    0.055286    1.689949
  F      2.125697    1.616868    0.483237
  F      2.314152    0.589704   -1.455769
  F      0.794029   -1.413561   -0.700839
  F      0.958351   -0.884509    1.435093
  F     -0.498373    1.260266    1.173340
  F     -0.299075    1.289513   -1.020911
  F     -1.641790   -1.418189    0.779524
  F     -1.792381   -0.831392   -1.336864
  F     -2.918792    1.679227   -0.295171
  F     -3.119771    0.573780    1.598580
  F     -4.383116   -1.504378    0.089128
  F     -5.365670    0.430529    0.260394
  F     -4.396020   -0.128551   -1.602942

----------------------------
CARTESIAN COORDINATES (A.U.)
----------------------------
  NO LB      ZA    FRAG     MASS         X           Y           Z
   0 C     6.0000    0    12.011    9.052595   -0.063997   -1.001448
   1 O     8.0000    0    15.999   10.297770   -2.280756   -1.690539
   2 O     8.0000    0    15.999    9.407478    2.500242   -1.393441
   3 C     6.0000    0    12.011    6.626679   -0.640129    0.710828
   4 C     6.0000    0    12.011    4.199538    0.756882   -0.209158
   5 C     6.0000    0    12.011    1.701711   -0.730171    0.332031
   6 C     6.0000    0    12.011   -0.746935    0.920852    0.123870
   7 C     6.0000    0    12.011   -3.223294   -0.689323   -0.129207
   8 C     6.0000    0    12.011   -5.678884    0.841580    0.487859
   9 C     6.0000    0    12.011   -8.163391   -0.405395   -0.511248
  10 F     9.0000    0    18.998    6.069021   -3.197512    0.779956
  11 F     9.0000    0    18.998    7.069582    0.104475    3.193540
  12 F     9.0000    0    18.998    4.016985    3.055437    0.913185
  13 F     9.0000    0    18.998    4.373114    1.114379   -2.751005
  14 F     9.0000    0    18.998    1.500497   -2.671244   -1.324394
  15 F     9.0000    0    18.998    1.811020   -1.671480    2.711934
  16 F     9.0000    0    18.998   -0.941789    2.381557    2.217292
  17 F     9.0000    0    18.998   -0.565170    2.436826   -1.929242
  18 F     9.0000    0    18.998   -3.102534   -2.679989    1.473086
  19 F     9.0000    0    18.998   -3.387110   -1.571102   -2.526306
  20 F     9.0000    0    18.998   -5.515718    3.173280   -0.557793
  21 F     9.0000    0    18.998   -5.895513    1.084287    3.020878
  22 F     9.0000    0    18.998   -8.282888   -2.842862    0.168427
  23 F     9.0000    0    18.998  -10.139646    0.813581    0.492074
  24 F     9.0000    0    18.998   -8.307275   -0.242925   -3.029121

--------------------------------
INTERNAL COORDINATES (ANGSTROEM)
--------------------------------
 C      0   0   0     0.000000000000     0.00000000     0.00000000
 O      1   0   0     1.393990356793     0.00000000     0.00000000
 O      1   2   0     1.385486802956   136.13177198     0.00000000
 C      1   2   3     1.600608594862   111.52489317   181.18992567
 C      4   1   2     1.559863783763   113.16872737   228.91614990
 C      5   4   1     1.564732561934   113.58394786   148.64287440
 C      6   5   4     1.566675459667   113.91280616   163.93256239
 C      7   6   5     1.568817348692   113.20226571   162.98152714
 C      8   7   6     1.565717094808   113.22984595   162.36375422
 C      9   8   7     1.563173062643   114.14707705   162.41661495
 F      4   1   2     1.385592665621   111.82651119   350.11101305
 F      4   1   2     1.391490625050   110.20991618   108.63170802
 F      5   4   1     1.357041377479   110.29260564   270.15468021
 F      5   4   1     1.361428031433   108.58179722    28.57841973
 F      6   5   4     1.354527570075   109.22822656   285.03385927
 F      6   5   4     1.355556277776   108.59004089    43.81583148
 F      7   6   5     1.354739297058   108.88346185   283.65347401
 F      7   6   5     1.353957667090   109.15230848    42.38718856
 F      8   7   6     1.353771473879   109.25240264    41.79387651
 F      8   7   6     1.354368423305   108.69554158   283.25540020
 F      9   8   7     1.355028009646   109.45719767    41.95842364
 F      9   8   7     1.351425618925   109.05210362   282.91820052
 F     10   9   8     1.340551089588   110.79953142    50.02756898
 F     10   9   8     1.338530275591   108.63493714   169.35523750
 F     10   9   8     1.337341214598   110.96044107   288.72891896

---------------------------
INTERNAL COORDINATES (A.U.)
---------------------------
 C      0   0   0     0.000000000000     0.00000000     0.00000000
 O      1   0   0     2.634260007667     0.00000000     0.00000000
 O      1   2   0     2.618190619750   136.13177198     0.00000000
 C      1   2   3     3.024711891890   111.52489317   181.18992567
 C      4   1   2     2.947715357535   113.16872737   228.91614990
 C      5   4   1     2.956916014884   113.58394786   148.64287440
 C      6   5   4     2.960587559506   113.91280616   163.93256239
 C      7   6   5     2.964635143173   113.20226571   162.98152714
 C      8   7   6     2.958776512386   113.22984595   162.36375422
 C      9   8   7     2.953968988318   114.14707705   162.41661495
 F      4   1   2     2.618390671194   111.82651119   350.11101305
 F      4   1   2     2.629536199263   110.20991618   108.63170802
 F      5   4   1     2.564436555835   110.29260564   270.15468021
 F      5   4   1     2.572726130452   108.58179722    28.57841973
 F      6   5   4     2.559686148288   109.22822656   285.03385927
 F      6   5   4     2.561630124115   108.59004089    43.81583148
 F      7   6   5     2.560086254300   108.88346185   283.65347401
 F      7   6   5     2.558609187723   109.15230848    42.38718856
 F      8   7   6     2.558257333546   109.25240264    41.79387651
 F      8   7   6     2.559385404477   108.69554158   283.25540020
 F      9   8   7     2.560631842023   109.45719767    41.95842364
 F      9   8   7     2.553824310132   109.05210362   282.91820052
 F     10   9   8     2.533274427850   110.79953142    50.02756898
 F     10   9   8     2.529455642830   108.63493714   169.35523750
 F     10   9   8     2.527208643196   110.96044107   288.72891896

---------------------
BASIS SET INFORMATION
---------------------
There are 3 groups of distinct atoms

 Group   1 Type C   : 11s6p2d1f contracted to 5s3p2d1f pattern {62111/411/11/1}
 Group   2 Type O   : 11s6p2d1f contracted to 5s3p2d1f pattern {62111/411/11/1}
 Group   3 Type F   : 11s6p2d1f contracted to 5s3p2d1f pattern {62111/411/11/1}

Atom   0C    basis set group =>   1
Atom   1O    basis set group =>   2
Atom   2O    basis set group =>   2
Atom   3C    basis set group =>   1
Atom   4C    basis set group =>   1
Atom   5C    basis set group =>   1
Atom   6C    basis set group =>   1
Atom   7C    basis set group =>   1
Atom   8C    basis set group =>   1
Atom   9C    basis set group =>   1
Atom  10F    basis set group =>   3
Atom  11F    basis set group =>   3
Atom  12F    basis set group =>   3
Atom  13F    basis set group =>   3
Atom  14F    basis set group =>   3
Atom  15F    basis set group =>   3
Atom  16F    basis set group =>   3
Atom  17F    basis set group =>   3
Atom  18F    basis set group =>   3
Atom  19F    basis set group =>   3
Atom  20F    basis set group =>   3
Atom  21F    basis set group =>   3
Atom  22F    basis set group =>   3
Atom  23F    basis set group =>   3
Atom  24F    basis set group =>   3
---------------------------------
AUXILIARY/J BASIS SET INFORMATION
---------------------------------
There are 3 groups of distinct atoms

 Group   1 Type C   : 12s5p4d2f1g contracted to 6s4p3d1f1g pattern {711111/2111/211/2/1}
 Group   2 Type O   : 12s5p4d2f1g contracted to 6s4p3d1f1g pattern {711111/2111/211/2/1}
 Group   3 Type F   : 12s5p4d2f1g contracted to 6s4p3d1f1g pattern {711111/2111/211/2/1}

Atom   0C    basis set group =>   1
Atom   1O    basis set group =>   2
Atom   2O    basis set group =>   2
Atom   3C    basis set group =>   1
Atom   4C    basis set group =>   1
Atom   5C    basis set group =>   1
Atom   6C    basis set group =>   1
Atom   7C    basis set group =>   1
Atom   8C    basis set group =>   1
Atom   9C    basis set group =>   1
Atom  10F    basis set group =>   3
Atom  11F    basis set group =>   3
Atom  12F    basis set group =>   3
Atom  13F    basis set group =>   3
Atom  14F    basis set group =>   3
Atom  15F    basis set group =>   3
Atom  16F    basis set group =>   3
Atom  17F    basis set group =>   3
Atom  18F    basis set group =>   3
Atom  19F    basis set group =>   3
Atom  20F    basis set group =>   3
Atom  21F    basis set group =>   3
Atom  22F    basis set group =>   3
Atom  23F    basis set group =>   3
Atom  24F    basis set group =>   3


           ************************************************************
           *        Program running with 20 parallel MPI-processes    *
           *              working on a common directory               *
           ************************************************************
------------------------------------------------------------------------------
                           ORCA GTO INTEGRAL CALCULATION
                           -- RI-GTO INTEGRALS CHOSEN --
------------------------------------------------------------------------------
------------------------------------------------------------------------------
                   ___                                                        
                  /   \      - P O W E R E D   B Y -                         
                 /     \                                                     
                 |  |  |   _    _      __       _____    __    __             
                 |  |  |  | |  | |    /  \     |  _  \  |  |  /  |          
                  \  \/   | |  | |   /    \    | | | |  |  | /  /          
                 / \  \   | |__| |  /  /\  \   | |_| |  |  |/  /          
                |  |  |   |  __  | /  /__\  \  |    /   |      \           
                |  |  |   | |  | | |   __   |  |    \   |  |\   \          
                \     /   | |  | | |  |  |  |  | |\  \  |  | \   \       
                 \___/    |_|  |_| |__|  |__|  |_| \__\ |__|  \__/        
                                                                              
                      - O R C A' S   B I G   F R I E N D -                    
                                      &                                       
                       - I N T E G R A L  F E E D E R -                       
                                                                              
 v1 FN, 2020, v2 2021                                                         
------------------------------------------------------------------------------


Reading SHARK input file rf_mecn_opt_B2L_D_B_01.SHARKINP.tmp ... ok
----------------------
SHARK INTEGRAL PACKAGE
----------------------

Number of atoms                             ...     25
Number of basis functions                   ...    775
Number of shells                            ...    275
Maximum angular momentum                    ...      3
Integral batch strategy                     ... SHARK/LIBINT Hybrid
RI-J (if used) integral strategy            ... SPLIT-RIJ (Revised 2003 algorithm where possible)
Printlevel                                  ...      1
Contraction scheme used                     ... SEGMENTED contraction
Coulomb Range Separation                    ... NOT USED
Exchange Range Separation                   ... NOT USED
Finite Nucleus Model                        ... NOT USED
Auxiliary Coulomb fitting basis             ... AVAILABLE
   # of basis functions in Aux-J            ...   1225
   # of shells in Aux-J                     ...    375
   Maximum angular momentum in Aux-J        ...      4
Auxiliary J/K fitting basis                 ... NOT available
Auxiliary Correlation fitting basis         ... NOT available
Auxiliary 'external' fitting basis          ... NOT available
Integral threshold                          ...     2.500000e-11
Primitive cut-off                           ...     2.500000e-12
Primitive pair pre-selection threshold      ...     2.500000e-12

Calculating pre-screening integrals         ... done (  0.1 sec) Dimension = 275
Organizing shell pair data                  ... done (  0.3 sec)
Shell pair information
Total number of shell pairs                 ...     37950
Shell pairs after pre-screening             ...     23325
Total number of primitive shell pairs       ...    125800
Primitive shell pairs kept                  ...     49419
          la=0 lb=0:   4351 shell pairs
          la=1 lb=0:   6349 shell pairs
          la=1 lb=1:   2227 shell pairs
          la=2 lb=0:   3461 shell pairs
          la=2 lb=1:   2576 shell pairs
          la=2 lb=2:    727 shell pairs
          la=3 lb=0:   1568 shell pairs
          la=3 lb=1:   1240 shell pairs
          la=3 lb=2:    666 shell pairs
          la=3 lb=3:    160 shell pairs

Calculating one electron integrals          ... done (  0.1 sec)
Calculating RI/J V-Matrix + Cholesky decomp.... done (  0.3 sec)
Calculating Nuclear repulsion               ... done (  0.0 sec) ENN=   2860.975784253119 Eh

SHARK setup successfully completed in   1.7 seconds

Maximum memory used throughout the entire GTOINT-calculation: 41.2 MB


           ************************************************************
           *        Program running with 20 parallel MPI-processes    *
           *              working on a common directory               *
           ************************************************************
-------------------------------------------------------------------------------
                                 ORCA SCF
-------------------------------------------------------------------------------

------------
SCF SETTINGS
------------
Hamiltonian:
 Density Functional     Method          .... DFT(GTOs)
 Exchange Functional    Exchange        .... B88
   X-Alpha parameter    XAlpha          ....  0.666667
   Becke's b parameter  XBeta           ....  0.004200
 Correlation Functional Correlation     .... LYP
 LDA part of GGA corr.  LDAOpt          .... VWN-5
 Gradients option       PostSCFGGA      .... off
 Hybrid DFT is turned on
   Fraction HF Exchange ScalHFX         ....  0.200000
   Scaling of DF-GGA-X  ScalDFX         ....  0.720000
   Scaling of DF-GGA-C  ScalDFC         ....  0.810000
   Scaling of DF-LDA-C  ScalLDAC        ....  1.000000
   Perturbative correction              ....  0.000000
   Density functional embedding theory  .... OFF
   NL short-range parameter             ....  4.800000
 RI-approximation to the Coulomb term is turned on
   Number of AuxJ basis functions       .... 1225
   RIJ-COSX (HFX calculated with COS-X)).... on


General Settings:
 Integral files         IntName         .... rf_mecn_opt_B2L_D_B_01
 Hartree-Fock type      HFTyp           .... RHF
 Total Charge           Charge          ....   -1
 Multiplicity           Mult            ....    1
 Number of Electrons    NEL             ....  200
 Basis Dimension        Dim             ....  775
 Nuclear Repulsion      ENuc            ....   2860.9757842531 Eh

Convergence Acceleration:
 DIIS                   CNVDIIS         .... on
   Start iteration      DIISMaxIt       ....     0
   Startup error        DIISStart       ....  0.200000
   # of expansion vecs  DIISMaxEq       ....     5
   Bias factor          DIISBfac        ....   1.050
   Max. coefficient     DIISMaxC        ....  10.000
 Trust-Rad. Augm. Hess. CNVTRAH         .... auto
   Auto Start mean grad. ratio tolernc. ....  1.125000
   Auto Start start iteration           ....    20
   Auto Start num. interpolation iter.  ....    10
   Max. Number of Micro iterations      ....    16
   Max. Number of Macro iterations      .... Maxiter - #DIIS iter
   Number of Davidson start vectors     ....     2
   Converg. threshold I  (grad. norm)   ....   1.000e-05
   Converg. threshold II (energy diff.) ....   1.000e-08
   Grad. Scal. Fac. for Micro threshold ....   0.100
   Minimum threshold for Micro iter.    ....   0.010
   NR start threshold (gradient norm)   ....   0.001
   Initial trust radius                 ....   0.400
   Minimum AH scaling param. (alpha)    ....   1.000
   Maximum AH scaling param. (alpha)    .... 1000.000
   Orbital update algorithm             .... Taylor
   White noise on init. David. guess    .... on
   Maximum white noise                  ....   0.010
   Quad. conv. algorithm                .... NR
 SOSCF                  CNVSOSCF        .... on
   Start iteration      SOSCFMaxIt      ....   150
   Startup grad/error   SOSCFStart      ....  0.001000
 Level Shifting         CNVShift        .... on
   Level shift para.    LevelShift      ....    0.2500
   Turn off err/grad.   ShiftErr        ....    0.0000
 Zerner damping         CNVZerner       .... off
 Static damping         CNVDamp         .... on
   Fraction old density DampFac         ....    0.8500
   Max. Damping (<1)    DampMax         ....    0.9800
   Min. Damping (>=0)   DampMin         ....    0.0000
   Turn off err/grad.   DampErr         ....    0.0300
 Fernandez-Rico         CNVRico         .... off

SCF Procedure:
 Maximum # iterations   MaxIter         ....  1500
 SCF integral mode      SCFMode         .... Direct
   Integral package                     .... SHARK and LIBINT hybrid scheme
 Reset frequency        DirectResetFreq ....    20
 Integral Threshold     Thresh          ....  2.500e-11 Eh
 Primitive CutOff       TCut            ....  2.500e-12 Eh

Convergence Tolerance:
 Convergence Check Mode ConvCheckMode   .... Total+1el-Energy
 Convergence forced     ConvForced      .... 0
 Energy Change          TolE            ....  1.000e-08 Eh
 1-El. energy change                    ....  1.000e-05 Eh
 Orbital Gradient       TolG            ....  1.000e-05
 Orbital Rotation angle TolX            ....  1.000e-05
 DIIS Error             TolErr          ....  5.000e-07


Diagonalization of the overlap matrix:
Smallest eigenvalue                        ... 6.047e-05
Time for diagonalization                   ...    0.199 sec
Threshold for overlap eigenvalues          ... 1.000e-08
Number of eigenvalues below threshold      ... 0
Time for construction of square roots      ...    0.071 sec
Total time needed                          ...    0.275 sec

Time for model grid setup =    0.261 sec

------------------------------
INITIAL GUESS: MODEL POTENTIAL
------------------------------
Loading Hartree-Fock densities                     ... done
Calculating cut-offs                               ... done
Initializing the effective Hamiltonian             ... done
Setting up the integral package (SHARK)            ... done
Starting the Coulomb interaction                   ... done (   0.6 sec)
Reading the grid                                   ... done
Mapping shells                                     ... done
Starting the XC term evaluation                    ... done (   0.2 sec)
  promolecular density results
     # of electrons  =    199.000496603
     EX              =   -208.191704094
     EC              =     -7.488625665
     EX+EC           =   -215.680329759
Transforming the Hamiltonian                       ... done (   0.1 sec)
Diagonalizing the Hamiltonian                      ... done (   0.1 sec)
Back transforming the eigenvectors                 ... done (   0.0 sec)
Now organizing SCF variables                       ... done
                      ------------------
                      INITIAL GUESS DONE (   1.4 sec)
                      ------------------
-------------------
DFT GRID GENERATION
-------------------

General Integration Accuracy     IntAcc      ... 4.388
Radial Grid Type                 RadialGrid  ... OptM3 with GC (2021)
Angular Grid (max. ang.)         AngularGrid ... 4 (Lebedev-302)
Angular grid pruning method      GridPruning ... 4 (adaptive)
Weight generation scheme         WeightScheme... Becke
Basis function cutoff            BFCut       ... 1.0000e-11
Integration weight cutoff        WCut        ... 1.0000e-14
Angular grids for H and He will be reduced by one unit
Partially contracted basis set               ... off
Rotationally invariant grid construction     ... off

Total number of grid points                  ...   151489
Total number of batches                      ...     2379
Average number of points per batch           ...       63
Average number of grid points per atom       ...     6060
Time for grid setup =    1.108 sec

--------------------
COSX GRID GENERATION
--------------------

GRIDX 1
-------
General Integration Accuracy     IntAcc      ... 3.816
Radial Grid Type                 RadialGrid  ... OptM3 with GC (2021)
Angular Grid (max. ang.)         AngularGrid ... 1 (Lebedev-50)
Angular grid pruning method      GridPruning ... 4 (adaptive)
Weight generation scheme         WeightScheme... Becke
Basis function cutoff            BFCut       ... 1.0000e-11
Integration weight cutoff        WCut        ... 1.0000e-14
Angular grids for H and He will be reduced by one unit
Partially contracted basis set               ... on
Rotationally invariant grid construction     ... off

Total number of grid points                  ...    19031
Total number of batches                      ...      310
Average number of points per batch           ...       61
Average number of grid points per atom       ...      761
UseSFitting                                  ... on

GRIDX 2
-------
General Integration Accuracy     IntAcc      ... 4.020
Radial Grid Type                 RadialGrid  ... OptM3 with GC (2021)
Angular Grid (max. ang.)         AngularGrid ... 2 (Lebedev-110)
Angular grid pruning method      GridPruning ... 4 (adaptive)
Weight generation scheme         WeightScheme... Becke
Basis function cutoff            BFCut       ... 1.0000e-11
Integration weight cutoff        WCut        ... 1.0000e-14
Angular grids for H and He will be reduced by one unit
Partially contracted basis set               ... on
Rotationally invariant grid construction     ... off

Total number of grid points                  ...    45091
Total number of batches                      ...      721
Average number of points per batch           ...       62
Average number of grid points per atom       ...     1804
UseSFitting                                  ... on

GRIDX 3
-------
General Integration Accuracy     IntAcc      ... 4.338
Radial Grid Type                 RadialGrid  ... OptM3 with GC (2021)
Angular Grid (max. ang.)         AngularGrid ... 3 (Lebedev-194)
Angular grid pruning method      GridPruning ... 4 (adaptive)
Weight generation scheme         WeightScheme... Becke
Basis function cutoff            BFCut       ... 1.0000e-11
Integration weight cutoff        WCut        ... 1.0000e-14
Angular grids for H and He will be reduced by one unit
Partially contracted basis set               ... on
Rotationally invariant grid construction     ... off

Total number of grid points                  ...    99878
Total number of batches                      ...     1571
Average number of points per batch           ...       63
Average number of grid points per atom       ...     3995
UseSFitting                                  ... on

Time for X-Grid setup             =    1.772 sec


--------------------
CPCM SOLVATION MODEL
--------------------
CPCM parameters:
  Epsilon                                         ...      35.6880
  Refrac                                          ...       1.3442
  Rsolv                                           ...       1.3000
  Surface type                                    ... GAUSSIAN VDW
  Epsilon function type                           ...         CPCM
Solvent:                                     ... ACETONITRILE
SMD-CDS solvent descriptors:
  Soln                                       ...    1.3442
  Soln25                                     ...    1.3416
  Sola                                       ...    0.0700
  Solb                                       ...    0.3200
  Solg                                       ...   41.2500
  Solc                                       ...    0.0000
  Solh                                       ...    0.0000
Radii:
 Radius for C  used is    3.4960 Bohr (=   1.8500 Ang.)
 Radius for O  used is    4.0969 Bohr (=   2.1680 Ang.)
 Radius for F  used is    3.2692 Bohr (=   1.7300 Ang.)
Calculating surface                               ...        done! (  0.0s)
GEPOL surface points                              ...         1294
GEPOL Volume                                      ...    2206.0037
GEPOL Surface-area                                ...    1132.2350
Calculating surface distance matrix               ...        done! (  0.0s)
Performing Cholesky decomposition & store         ...        done! (  0.2s)
Overall time for CPCM initialization              ...                 0.2s
--------------
SCF ITERATIONS
--------------
ITER       Energy         Delta-E        Max-DP      RMS-DP      [F,P]     Damp
               ***  Starting incremental Fock matrix formation  ***
  0  -1952.4986677707   0.000000000000 0.07966902  0.00040773  0.3388728 0.8500
  1  -1952.6949281729  -0.196260402189 0.12517159  0.00045790  0.2247112 0.8500
                               ***Turning on DIIS***
  2  -1952.7958394517  -0.100911278822 0.09655359  0.00033422  0.1296967 0.8500
  3  -1952.8511485066  -0.055309054919 0.03882653  0.00015413  0.0688630 0.8500
  4  -1952.8927495455  -0.041601038841 0.00978280  0.00007666  0.0483107 0.8500
  5  -1952.9256284834  -0.032878937882 0.00492316  0.00005080  0.0402782 0.8500
  6  -1952.9528319636  -0.027203480251 0.00563519  0.00004223  0.0352900 0.8500
  7  -1952.9757869987  -0.022955035043 0.00583193  0.00003747  0.0308586 0.8500
  8  -1952.9953653010  -0.019578302364 0.03416790  0.00022119  0.0257048 0.0000
  9  -1953.1036755310  -0.108310229968 0.00367008  0.00002800  0.0066325 0.0000
 10  -1953.1037778789  -0.000102347958 0.00189412  0.00001086  0.0053237 0.0000
                      *** Initiating the SOSCF procedure ***
                           *** Shutting down DIIS ***
                      *** Re-Reading the Fockian *** 
                      *** Removing any level shift *** 
ITER      Energy       Delta-E        Grad      Rot      Max-DP    RMS-DP
 11  -1953.10383792  -0.0000600412  0.000145  0.000145  0.001028  0.000006
               *** Restarting incremental Fock matrix formation ***
 12  -1953.10385679  -0.0000188730  0.000209  0.000641  0.000938  0.000005
 13  -1953.10385552   0.0000012727  0.000427  0.000401  0.000766  0.000003
 14  -1953.10385733  -0.0000018102  0.000014  0.000059  0.000132  0.000001
 15  -1953.10385733  -0.0000000012  0.000037  0.000061  0.000044  0.000000
 16  -1953.10385734  -0.0000000104  0.000018  0.000034  0.000106  0.000000
 17  -1953.10385733   0.0000000109  0.000013  0.000014  0.000079  0.000000
                 **** Energy Check signals convergence ****
              ***Rediagonalizing the Fockian in SOSCF/NRSCF***

               *****************************************************
               *                     SUCCESS                       *
               *           SCF CONVERGED AFTER  18 CYCLES          *
               *****************************************************

Old exchange energy                            =    -41.749802857 Eh
New exchange energy                            =    -41.749824380 Eh
Exchange energy change after final integration =     -0.000021523 Eh
Total energy after final integration           =  -1953.103878854 Eh
Final COS-X integration done in                =    10.582 sec

SMD CDS free energy correction energy :                 3.69432     Kcal/mol
Total Energy after SMD CDS correction =             -1953.097991587 Eh

----------------
TOTAL SCF ENERGY
----------------

Total Energy       :        -1953.09799159 Eh          -53146.49827 eV

Components:
Nuclear Repulsion  :         2860.97578425 Eh           77851.10896 eV
Electronic Energy  :        -4814.07377584 Eh         -130997.60723 eV
One Electron Energy:        -8435.20983453 Eh         -229533.72887 eV
Two Electron Energy:         3621.13605869 Eh           98536.12164 eV
Max COSX asymmetry :            0.00000250 Eh               0.00007 eV
CPCM Dielectric    :           -0.08220431 Eh              -2.23689 eV
SMD CDS (Gcds)     :            0.00588727 Eh               0.16020 eV

Virial components:
Potential Energy   :        -3898.58755524 Eh         -106085.96068 eV
Kinetic Energy     :         1945.48956365 Eh           52939.46242 eV
Virial Ratio       :            2.00391080


DFT components:
N(Alpha)           :       99.999974568301 electrons
N(Beta)            :       99.999974568301 electrons
N(Total)           :      199.999949136602 electrons
E(X)               :     -166.440237655567 Eh       
E(C)               :       -8.784619440085 Eh       
E(XC)              :     -175.224857095651 Eh       
DFET-embed. en.    :        0.000000000000 Eh       
CPCM Solvation Model Properties:
Surface-charge          :            0.98952513
Charge-correction       :           -0.00107867 Eh              -0.02935 eV
Free-energy (cav+disp)  :            0.00588727 Eh               0.16020 eV

---------------
SCF CONVERGENCE
---------------

  Last Energy change         ...    8.1764e-10  Tolerance :   1.0000e-08
  Last MAX-Density change    ...    2.4425e-15  Tolerance :   1.0000e-07
  Last RMS-Density change    ...    2.0315e-17  Tolerance :   5.0000e-09
  Last Orbital Gradient      ...    5.5295e-07  Tolerance :   1.0000e-05
  Last Orbital Rotation      ...    7.7532e-07  Tolerance :   1.0000e-05

             **** THE GBW FILE WAS UPDATED (rf_mecn_opt_B2L_D_B_01.gbw) ****
             **** DENSITY rf_mecn_opt_B2L_D_B_01.scfp WAS UPDATED ****
             **** ENERGY FILE WAS UPDATED (rf_mecn_opt_B2L_D_B_01.en.tmp) ****
             **** THE GBW FILE WAS UPDATED (rf_mecn_opt_B2L_D_B_01.gbw) ****
             **** DENSITY rf_mecn_opt_B2L_D_B_01.scfp WAS UPDATED ****
----------------
ORBITAL ENERGIES
----------------

  NO   OCC          E(Eh)            E(eV) 
   0   2.0000     -24.745389      -673.3563 
   1   2.0000     -24.744448      -673.3307 
   2   2.0000     -24.744060      -673.3201 
   3   2.0000     -24.744056      -673.3200 
   4   2.0000     -24.743837      -673.3140 
   5   2.0000     -24.743797      -673.3130 
   6   2.0000     -24.743068      -673.2931 
   7   2.0000     -24.741382      -673.2472 
   8   2.0000     -24.741145      -673.2408 
   9   2.0000     -24.736623      -673.1177 
  10   2.0000     -24.734663      -673.0644 
  11   2.0000     -24.726282      -672.8363 
  12   2.0000     -24.722155      -672.7240 
  13   2.0000     -24.704821      -672.2523 
  14   2.0000     -24.702068      -672.1775 
  15   2.0000     -19.086770      -519.3774 
  16   2.0000     -19.085228      -519.3355 
  17   2.0000     -10.463231      -284.7190 
  18   2.0000     -10.410743      -283.2907 
  19   2.0000     -10.409699      -283.2623 
  20   2.0000     -10.407539      -283.2035 
  21   2.0000     -10.400607      -283.0149 
  22   2.0000     -10.387799      -282.6664 
  23   2.0000     -10.363254      -281.9985 
  24   2.0000     -10.295128      -280.1447 
  25   2.0000      -1.351318       -36.7712 
  26   2.0000      -1.328133       -36.1403 
  27   2.0000      -1.313025       -35.7292 
  28   2.0000      -1.305083       -35.5131 
  29   2.0000      -1.301515       -35.4160 
  30   2.0000      -1.289897       -35.0999 
  31   2.0000      -1.265977       -34.4490 
  32   2.0000      -1.259860       -34.2825 
  33   2.0000      -1.259499       -34.2727 
  34   2.0000      -1.257878       -34.2286 
  35   2.0000      -1.252366       -34.0786 
  36   2.0000      -1.249036       -33.9880 
  37   2.0000      -1.245164       -33.8826 
  38   2.0000      -1.233253       -33.5585 
  39   2.0000      -1.205040       -32.7908 
  40   2.0000      -0.960654       -26.1407 
  41   2.0000      -0.901650       -24.5351 
  42   2.0000      -0.849387       -23.1130 
  43   2.0000      -0.827996       -22.5309 
  44   2.0000      -0.798849       -21.7378 
  45   2.0000      -0.760220       -20.6866 
  46   2.0000      -0.717960       -19.5367 
  47   2.0000      -0.689564       -18.7640 
  48   2.0000      -0.671531       -18.2733 
  49   2.0000      -0.650166       -17.6919 
  50   2.0000      -0.645292       -17.5593 
  51   2.0000      -0.637700       -17.3527 
  52   2.0000      -0.629214       -17.1218 
  53   2.0000      -0.624938       -17.0054 
  54   2.0000      -0.623636       -16.9700 
  55   2.0000      -0.610991       -16.6259 
  56   2.0000      -0.607551       -16.5323 
  57   2.0000      -0.602729       -16.4011 
  58   2.0000      -0.595942       -16.2164 
  59   2.0000      -0.585049       -15.9200 
  60   2.0000      -0.580910       -15.8074 
  61   2.0000      -0.577217       -15.7069 
  62   2.0000      -0.566587       -15.4176 
  63   2.0000      -0.551172       -14.9982 
  64   2.0000      -0.516787       -14.0625 
  65   2.0000      -0.513076       -13.9615 
  66   2.0000      -0.507581       -13.8120 
  67   2.0000      -0.504174       -13.7193 
  68   2.0000      -0.500127       -13.6092 
  69   2.0000      -0.496907       -13.5215 
  70   2.0000      -0.492098       -13.3907 
  71   2.0000      -0.487513       -13.2659 
  72   2.0000      -0.482915       -13.1408 
  73   2.0000      -0.481313       -13.0972 
  74   2.0000      -0.478227       -13.0132 
  75   2.0000      -0.471722       -12.8362 
  76   2.0000      -0.468002       -12.7350 
  77   2.0000      -0.463765       -12.6197 
  78   2.0000      -0.460532       -12.5317 
  79   2.0000      -0.458819       -12.4851 
  80   2.0000      -0.453863       -12.3502 
  81   2.0000      -0.453038       -12.3278 
  82   2.0000      -0.449952       -12.2438 
  83   2.0000      -0.445596       -12.1253 
  84   2.0000      -0.444480       -12.0949 
  85   2.0000      -0.441816       -12.0224 
  86   2.0000      -0.439259       -11.9528 
  87   2.0000      -0.434750       -11.8302 
  88   2.0000      -0.432484       -11.7685 
  89   2.0000      -0.426237       -11.5985 
  90   2.0000      -0.415784       -11.3141 
  91   2.0000      -0.414463       -11.2781 
  92   2.0000      -0.398436       -10.8420 
  93   2.0000      -0.388018       -10.5585 
  94   2.0000      -0.373255       -10.1568 
  95   2.0000      -0.348246        -9.4763 
  96   2.0000      -0.343217        -9.3394 
  97   2.0000      -0.249390        -6.7862 
  98   2.0000      -0.245435        -6.6786 
  99   2.0000      -0.243084        -6.6147 
 100   0.0000      -0.021234        -0.5778 
 101   0.0000      -0.010265        -0.2793 
 102   0.0000       0.004460         0.1214 
 103   0.0000       0.037467         1.0195 
 104   0.0000       0.046834         1.2744 
 105   0.0000       0.082050         2.2327 
 106   0.0000       0.093051         2.5320 
 107   0.0000       0.098014         2.6671 
 108   0.0000       0.101515         2.7624 
 109   0.0000       0.121919         3.3176 
 110   0.0000       0.129716         3.5298 
 111   0.0000       0.130481         3.5506 
 112   0.0000       0.142001         3.8641 
 113   0.0000       0.150729         4.1015 
 114   0.0000       0.153445         4.1755 
 115   0.0000       0.172468         4.6931 
 116   0.0000       0.175367         4.7720 
 117   0.0000       0.187329         5.0975 
 118   0.0000       0.199294         5.4231 
 119   0.0000       0.200813         5.4644 
 120   0.0000       0.204505         5.5649 
 121   0.0000       0.211611         5.7582 
 122   0.0000       0.213370         5.8061 
 123   0.0000       0.219721         5.9789 
 124   0.0000       0.220511         6.0004 
 125   0.0000       0.224103         6.0982 
 126   0.0000       0.231894         6.3102 
 127   0.0000       0.236522         6.4361 
 128   0.0000       0.244472         6.6524 
 129   0.0000       0.245538         6.6814 
 130   0.0000       0.248104         6.7513 
 131   0.0000       0.255436         6.9508 
 132   0.0000       0.259604         7.0642 
 133   0.0000       0.271411         7.3855 
 134   0.0000       0.272616         7.4183 
 135   0.0000       0.281370         7.6565 
 136   0.0000       0.288586         7.8528 
 137   0.0000       0.291773         7.9395 
 138   0.0000       0.295928         8.0526 
 139   0.0000       0.302703         8.2370 
 140   0.0000       0.310906         8.4602 
 141   0.0000       0.316948         8.6246 
 142   0.0000       0.324649         8.8342 
 143   0.0000       0.328139         8.9291 
 144   0.0000       0.337688         9.1889 
 145   0.0000       0.342973         9.3328 
 146   0.0000       0.347765         9.4632 
 147   0.0000       0.372120        10.1259 
 148   0.0000       0.388183        10.5630 
 149   0.0000       0.390431        10.6242 
 150   0.0000       0.409214        11.1353 
 151   0.0000       0.420690        11.4476 
 152   0.0000       0.426413        11.6033 
 153   0.0000       0.429894        11.6980 
 154   0.0000       0.431271        11.7355 
 155   0.0000       0.436538        11.8788 
 156   0.0000       0.451072        12.2743 
 157   0.0000       0.455843        12.4041 
 158   0.0000       0.462146        12.5756 
 159   0.0000       0.464810        12.6481 
 160   0.0000       0.477650        12.9975 
 161   0.0000       0.483451        13.1554 
 162   0.0000       0.492220        13.3940 
 163   0.0000       0.496615        13.5136 
 164   0.0000       0.508868        13.8470 
 165   0.0000       0.515198        14.0193 
 166   0.0000       0.522217        14.2102 
 167   0.0000       0.526797        14.3349 
 168   0.0000       0.532667        14.4946 
 169   0.0000       0.537022        14.6131 
 170   0.0000       0.545149        14.8343 
 171   0.0000       0.557107        15.1596 
 172   0.0000       0.575698        15.6655 
 173   0.0000       0.578406        15.7392 
 174   0.0000       0.611323        16.6349 
 175   0.0000       0.617636        16.8067 
 176   0.0000       0.621813        16.9204 
 177   0.0000       0.637501        17.3473 
 178   0.0000       0.646920        17.6036 
 179   0.0000       0.653025        17.7697 
 180   0.0000       0.660858        17.9829 
 181   0.0000       0.662425        18.0255 
 182   0.0000       0.678180        18.4542 
 183   0.0000       0.683103        18.5882 
 184   0.0000       0.686527        18.6814 
 185   0.0000       0.704616        19.1736 
 186   0.0000       0.707929        19.2637 
 187   0.0000       0.711862        19.3708 
 188   0.0000       0.719706        19.5842 
 189   0.0000       0.729451        19.8494 
 190   0.0000       0.731442        19.9036 
 191   0.0000       0.736174        20.0323 
 192   0.0000       0.749111        20.3843 
 193   0.0000       0.754936        20.5429 
 194   0.0000       0.759121        20.6567 
 195   0.0000       0.765851        20.8399 
 196   0.0000       0.772390        21.0178 
 197   0.0000       0.775065        21.0906 
 198   0.0000       0.782727        21.2991 
 199   0.0000       0.797314        21.6960 
 200   0.0000       0.803910        21.8755 
 201   0.0000       0.815323        22.1861 
 202   0.0000       0.821327        22.3494 
 203   0.0000       0.827566        22.5192 
 204   0.0000       0.839515        22.8444 
 205   0.0000       0.845327        23.0025 
 206   0.0000       0.850634        23.1469 
 207   0.0000       0.856339        23.3022 
 208   0.0000       0.864484        23.5238 
 209   0.0000       0.873034        23.7565 
 210   0.0000       0.884701        24.0739 
 211   0.0000       0.894861        24.3504 
 212   0.0000       0.906996        24.6806 
 213   0.0000       0.911823        24.8120 
 214   0.0000       0.918231        24.9863 
 215   0.0000       0.921430        25.0734 
 216   0.0000       0.934394        25.4262 
 217   0.0000       0.937429        25.5087 
 218   0.0000       0.949723        25.8433 
 219   0.0000       0.953684        25.9511 
 220   0.0000       0.966898        26.3106 
 221   0.0000       0.975415        26.5424 
 222   0.0000       0.978597        26.6290 
 223   0.0000       0.998444        27.1690 
 224   0.0000       1.004671        27.3385 
 225   0.0000       1.016871        27.6705 
 226   0.0000       1.020984        27.7824 
 227   0.0000       1.037176        28.2230 
 228   0.0000       1.049986        28.5716 
 229   0.0000       1.068448        29.0739 
 230   0.0000       1.068891        29.0860 
 231   0.0000       1.078183        29.3388 
 232   0.0000       1.094275        29.7767 
 233   0.0000       1.101863        29.9832 
 234   0.0000       1.104710        30.0607 
 235   0.0000       1.115404        30.3517 
 236   0.0000       1.125802        30.6346 
 237   0.0000       1.129301        30.7298 
 238   0.0000       1.140181        31.0259 
 239   0.0000       1.148554        31.2537 
 240   0.0000       1.156057        31.4579 
 241   0.0000       1.165187        31.7063 
 242   0.0000       1.174415        31.9575 
 243   0.0000       1.175899        31.9978 
 244   0.0000       1.180597        32.1257 
 245   0.0000       1.198439        32.6112 
 246   0.0000       1.213720        33.0270 
 247   0.0000       1.222564        33.2677 
 248   0.0000       1.230611        33.4866 
 249   0.0000       1.242052        33.7980 
 250   0.0000       1.256402        34.1884 
 251   0.0000       1.269844        34.5542 
 252   0.0000       1.272574        34.6285 
 253   0.0000       1.281144        34.8617 
 254   0.0000       1.294081        35.2137 
 255   0.0000       1.308469        35.6052 
 256   0.0000       1.319751        35.9123 
 257   0.0000       1.327421        36.1210 
 258   0.0000       1.360374        37.0177 
 259   0.0000       1.376806        37.4648 
 260   0.0000       1.384048        37.6619 
 261   0.0000       1.393332        37.9145 
 262   0.0000       1.409741        38.3610 
 263   0.0000       1.428093        38.8604 
 264   0.0000       1.450405        39.4675 
 265   0.0000       1.472234        40.0615 
 266   0.0000       1.473570        40.0979 
 267   0.0000       1.487652        40.4811 
 268   0.0000       1.529483        41.6194 
 269   0.0000       1.558533        42.4098 
 270   0.0000       1.567532        42.6547 
 271   0.0000       1.581262        43.0283 
 272   0.0000       1.609736        43.8031 
 273   0.0000       1.620246        44.0891 
 274   0.0000       1.629499        44.3409 
 275   0.0000       1.653290        44.9883 
 276   0.0000       1.665008        45.3072 
 277   0.0000       1.687782        45.9269 
 278   0.0000       1.698570        46.2204 
 279   0.0000       1.721633        46.8480 
 280   0.0000       1.741640        47.3924 
 281   0.0000       1.758489        47.8509 
 282   0.0000       1.773532        48.2603 
 283   0.0000       1.778315        48.3904 
 284   0.0000       1.791295        48.7436 
 285   0.0000       1.800461        48.9930 
 286   0.0000       1.812221        49.3130 
 287   0.0000       1.825340        49.6700 
 288   0.0000       1.844985        50.2046 
 289   0.0000       1.849392        50.3245 
 290   0.0000       1.855666        50.4952 
 291   0.0000       1.868588        50.8469 
 292   0.0000       1.882642        51.2293 
 293   0.0000       1.894119        51.5416 
 294   0.0000       1.904158        51.8148 
 295   0.0000       1.906487        51.8782 
 296   0.0000       1.910092        51.9763 
 297   0.0000       1.924181        52.3596 
 298   0.0000       1.925936        52.4074 
 299   0.0000       1.932605        52.5888 
 300   0.0000       1.943264        52.8789 
 301   0.0000       1.949428        53.0466 
 302   0.0000       1.952906        53.1413 
 303   0.0000       1.960911        53.3591 
 304   0.0000       1.971614        53.6504 
 305   0.0000       1.993513        54.2462 
 306   0.0000       2.008944        54.6662 
 307   0.0000       2.017954        54.9113 
 308   0.0000       2.040038        55.5123 
 309   0.0000       2.044967        55.6464 
 310   0.0000       2.047203        55.7072 
 311   0.0000       2.054698        55.9112 
 312   0.0000       2.061516        56.0967 
 313   0.0000       2.062867        56.1335 
 314   0.0000       2.073055        56.4107 
 315   0.0000       2.077567        56.5335 
 316   0.0000       2.080081        56.6019 
 317   0.0000       2.087364        56.8001 
 318   0.0000       2.091391        56.9096 
 319   0.0000       2.094333        56.9897 
 320   0.0000       2.106786        57.3286 
 321   0.0000       2.120925        57.7133 
 322   0.0000       2.129998        57.9602 
 323   0.0000       2.133271        58.0493 
 324   0.0000       2.135232        58.1026 
 325   0.0000       2.147908        58.4475 
 326   0.0000       2.155566        58.6559 
 327   0.0000       2.159496        58.7629 
 328   0.0000       2.175770        59.2057 
 329   0.0000       2.185951        59.4827 
 330   0.0000       2.187277        59.5188 
 331   0.0000       2.220124        60.4126 
 332   0.0000       2.236641        60.8621 
 333   0.0000       2.249217        61.2043 
 334   0.0000       2.254441        61.3464 
 335   0.0000       2.266796        61.6827 
 336   0.0000       2.277091        61.9628 
 337   0.0000       2.285246        62.1847 
 338   0.0000       2.300190        62.5914 
 339   0.0000       2.316243        63.0282 
 340   0.0000       2.331628        63.4468 
 341   0.0000       2.338222        63.6262 
 342   0.0000       2.361111        64.2491 
 343   0.0000       2.367522        64.4235 
 344   0.0000       2.370234        64.4974 
 345   0.0000       2.385007        64.8993 
 346   0.0000       2.407562        65.5131 
 347   0.0000       2.417444        65.7820 
 348   0.0000       2.424444        65.9725 
 349   0.0000       2.436199        66.2923 
 350   0.0000       2.446451        66.5713 
 351   0.0000       2.454951        66.8026 
 352   0.0000       2.456428        66.8428 
 353   0.0000       2.462715        67.0139 
 354   0.0000       2.468970        67.1841 
 355   0.0000       2.471297        67.2474 
 356   0.0000       2.473784        67.3151 
 357   0.0000       2.481979        67.5381 
 358   0.0000       2.485980        67.6470 
 359   0.0000       2.499636        68.0185 
 360   0.0000       2.508771        68.2671 
 361   0.0000       2.521843        68.6229 
 362   0.0000       2.538890        69.0867 
 363   0.0000       2.547052        69.3088 
 364   0.0000       2.580797        70.2271 
 365   0.0000       2.593145        70.5631 
 366   0.0000       2.598699        70.7142 
 367   0.0000       2.612286        71.0839 
 368   0.0000       2.620504        71.3075 
 369   0.0000       2.630815        71.5881 
 370   0.0000       2.635866        71.7256 
 371   0.0000       2.644688        71.9656 
 372   0.0000       2.647274        72.0360 
 373   0.0000       2.685087        73.0649 
 374   0.0000       2.716431        73.9178 
 375   0.0000       2.752792        74.9073 
 376   0.0000       2.764280        75.2199 
 377   0.0000       2.772175        75.4347 
 378   0.0000       2.798079        76.1396 
 379   0.0000       2.825075        76.8742 
 380   0.0000       2.838171        77.2305 
 381   0.0000       2.854234        77.6677 
 382   0.0000       2.879131        78.3451 
 383   0.0000       2.883612        78.4671 
 384   0.0000       2.899843        78.9087 
 385   0.0000       2.904382        79.0322 
 386   0.0000       2.915704        79.3403 
 387   0.0000       2.925006        79.5935 
 388   0.0000       2.931089        79.7590 
 389   0.0000       2.933746        79.8313 
 390   0.0000       2.958179        80.4962 
 391   0.0000       2.961670        80.5911 
 392   0.0000       2.961936        80.5984 
 393   0.0000       2.971480        80.8581 
 394   0.0000       2.982164        81.1488 
 395   0.0000       2.987464        81.2930 
 396   0.0000       3.006841        81.8203 
 397   0.0000       3.014178        82.0200 
 398   0.0000       3.016701        82.0886 
 399   0.0000       3.027012        82.3692 
 400   0.0000       3.039491        82.7088 
 401   0.0000       3.046363        82.8957 
 402   0.0000       3.050282        83.0024 
 403   0.0000       3.066045        83.4313 
 404   0.0000       3.069911        83.5365 
 405   0.0000       3.074160        83.6522 
 406   0.0000       3.078255        83.7636 
 407   0.0000       3.090068        84.0850 
 408   0.0000       3.096847        84.2695 
 409   0.0000       3.108731        84.5929 
 410   0.0000       3.115968        84.7898 
 411   0.0000       3.119411        84.8835 
 412   0.0000       3.128214        85.1230 
 413   0.0000       3.132875        85.2499 
 414   0.0000       3.134187        85.2856 
 415   0.0000       3.145355        85.5895 
 416   0.0000       3.149874        85.7124 
 417   0.0000       3.155295        85.8600 
 418   0.0000       3.158256        85.9405 
 419   0.0000       3.167519        86.1926 
 420   0.0000       3.173338        86.3509 
 421   0.0000       3.187458        86.7351 
 422   0.0000       3.195216        86.9463 
 423   0.0000       3.207366        87.2769 
 424   0.0000       3.210418        87.3599 
 425   0.0000       3.216144        87.5157 
 426   0.0000       3.220426        87.6322 
 427   0.0000       3.233417        87.9857 
 428   0.0000       3.241316        88.2007 
 429   0.0000       3.243938        88.2720 
 430   0.0000       3.254380        88.5562 
 431   0.0000       3.261609        88.7529 
 432   0.0000       3.273294        89.0709 
 433   0.0000       3.275089        89.1197 
 434   0.0000       3.281092        89.2831 
 435   0.0000       3.300022        89.7982 
 436   0.0000       3.301520        89.8389 
 437   0.0000       3.307512        90.0020 
 438   0.0000       3.317382        90.2706 
 439   0.0000       3.329228        90.5929 
 440   0.0000       3.341090        90.9157 
 441   0.0000       3.359412        91.4142 
 442   0.0000       3.361658        91.4754 
 443   0.0000       3.382343        92.0382 
 444   0.0000       3.389325        92.2282 
 445   0.0000       3.393675        92.3466 
 446   0.0000       3.415343        92.9362 
 447   0.0000       3.433183        93.4217 
 448   0.0000       3.448924        93.8500 
 449   0.0000       3.460945        94.1771 
 450   0.0000       3.492049        95.0235 
 451   0.0000       3.496904        95.1556 
 452   0.0000       3.504053        95.3501 
 453   0.0000       3.528721        96.0214 
 454   0.0000       3.535183        96.1972 
 455   0.0000       3.561498        96.9133 
 456   0.0000       3.568434        97.1020 
 457   0.0000       3.589701        97.6807 
 458   0.0000       3.605557        98.1122 
 459   0.0000       3.616110        98.3994 
 460   0.0000       3.619547        98.4929 
 461   0.0000       3.647384        99.2504 
 462   0.0000       3.655592        99.4737 
 463   0.0000       3.690077       100.4121 
 464   0.0000       3.708359       100.9096 
 465   0.0000       3.719166       101.2037 
 466   0.0000       3.729363       101.4811 
 467   0.0000       3.751203       102.0754 
 468   0.0000       3.753221       102.1303 
 469   0.0000       3.768849       102.5556 
 470   0.0000       3.777868       102.8010 
 471   0.0000       3.801474       103.4434 
 472   0.0000       3.805207       103.5449 
 473   0.0000       3.820672       103.9658 
 474   0.0000       3.836194       104.3881 
 475   0.0000       3.840590       104.5078 
 476   0.0000       3.847073       104.6842 
 477   0.0000       3.861650       105.0808 
 478   0.0000       3.865336       105.1812 
 479   0.0000       3.877833       105.5212 
 480   0.0000       3.893529       105.9483 
 481   0.0000       3.899535       106.1117 
 482   0.0000       3.907847       106.3379 
 483   0.0000       3.915982       106.5593 
 484   0.0000       3.931602       106.9843 
 485   0.0000       3.942561       107.2825 
 486   0.0000       3.958270       107.7100 
 487   0.0000       3.970929       108.0545 
 488   0.0000       3.978256       108.2538 
 489   0.0000       3.995874       108.7333 
 490   0.0000       3.997519       108.7780 
 491   0.0000       4.003242       108.9338 
 492   0.0000       4.018759       109.3560 
 493   0.0000       4.023713       109.4908 
 494   0.0000       4.036182       109.8301 
 495   0.0000       4.045232       110.0763 
 496   0.0000       4.048249       110.1585 
 497   0.0000       4.062294       110.5406 
 498   0.0000       4.084396       111.1421 
 499   0.0000       4.091719       111.3413 
 500   0.0000       4.096436       111.4697 
 501   0.0000       4.105363       111.7126 
 502   0.0000       4.109287       111.8194 
 503   0.0000       4.115349       111.9843 
 504   0.0000       4.119524       112.0980 
 505   0.0000       4.124133       112.2234 
 506   0.0000       4.138101       112.6034 
 507   0.0000       4.150905       112.9519 
 508   0.0000       4.159464       113.1848 
 509   0.0000       4.163062       113.2827 
 510   0.0000       4.173769       113.5740 
 511   0.0000       4.192110       114.0731 
 512   0.0000       4.202150       114.3463 
 513   0.0000       4.217995       114.7775 
 514   0.0000       4.242074       115.4327 
 515   0.0000       4.257237       115.8453 
 516   0.0000       4.277126       116.3865 
 517   0.0000       4.296484       116.9133 
 518   0.0000       4.301463       117.0488 
 519   0.0000       4.320109       117.5561 
 520   0.0000       4.368682       118.8779 
 521   0.0000       4.400343       119.7394 
 522   0.0000       4.555071       123.9498 
 523   0.0000       4.582357       124.6923 
 524   0.0000       4.614213       125.5591 
 525   0.0000       4.662368       126.8695 
 526   0.0000       4.738057       128.9291 
 527   0.0000       4.758598       129.4880 
 528   0.0000       4.807627       130.8222 
 529   0.0000       4.924181       133.9938 
 530   0.0000       4.952140       134.7546 
 531   0.0000       4.996530       135.9625 
 532   0.0000       5.125102       139.4611 
 533   0.0000       5.134999       139.7304 
 534   0.0000       5.182840       141.0322 
 535   0.0000       5.197829       141.4401 
 536   0.0000       5.206245       141.6691 
 537   0.0000       5.207537       141.7043 
 538   0.0000       5.210804       141.7932 
 539   0.0000       5.225124       142.1829 
 540   0.0000       5.256358       143.0328 
 541   0.0000       5.290959       143.9743 
 542   0.0000       5.293106       144.0327 
 543   0.0000       5.320592       144.7807 
 544   0.0000       5.332744       145.1113 
 545   0.0000       5.335593       145.1889 
 546   0.0000       5.375948       146.2870 
 547   0.0000       5.415042       147.3508 
 548   0.0000       5.444677       148.1572 
 549   0.0000       5.479179       149.0960 
 550   0.0000       5.495033       149.5274 
 551   0.0000       5.531478       150.5192 
 552   0.0000       5.603820       152.4877 
 553   0.0000       5.657580       153.9506 
 554   0.0000       5.711095       155.4068 
 555   0.0000       5.743900       156.2995 
 556   0.0000       5.850755       159.2071 
 557   0.0000       5.916997       161.0097 
 558   0.0000       6.164441       167.7430 
 559   0.0000       6.228446       169.4846 
 560   0.0000       6.339733       172.5129 
 561   0.0000       6.381112       173.6389 
 562   0.0000       6.414767       174.5547 
 563   0.0000       6.445248       175.3841 
 564   0.0000       6.728004       183.0783 
 565   0.0000       6.762074       184.0054 
 566   0.0000       6.780529       184.5076 
 567   0.0000       6.798482       184.9961 
 568   0.0000       6.801462       185.0772 
 569   0.0000       6.803375       185.1293 
 570   0.0000       6.805027       185.1742 
 571   0.0000       6.805940       185.1990 
 572   0.0000       6.806306       185.2090 
 573   0.0000       6.806687       185.2194 
 574   0.0000       6.809905       185.3069 
 575   0.0000       6.810418       185.3209 
 576   0.0000       6.811507       185.3505 
 577   0.0000       6.812095       185.3665 
 578   0.0000       6.813691       185.4100 
 579   0.0000       6.814779       185.4396 
 580   0.0000       6.817066       185.5018 
 581   0.0000       6.817791       185.5215 
 582   0.0000       6.818540       185.5419 
 583   0.0000       6.822135       185.6397 
 584   0.0000       6.822490       185.6494 
 585   0.0000       6.824063       185.6922 
 586   0.0000       6.825373       185.7278 
 587   0.0000       6.828048       185.8006 
 588   0.0000       6.828900       185.8238 
 589   0.0000       6.830413       185.8650 
[...]
      f-2     :     0.000215
      f+3     :     0.001451
      f-3     :     0.001436
  3 C s       :     2.786221  s :     2.786221
      pz      :     0.794913  p :     2.604739
      px      :     1.036757
      py      :     0.773070
      dz2     :     0.207594  d :     0.875956
      dxz     :     0.155352
      dyz     :     0.180506
      dx2y2   :     0.173310
      dxy     :     0.159194
      f0      :     0.036103  f :     0.169709
      f+1     :     0.024536
      f-1     :     0.034400
      f+2     :     0.018512
      f-2     :     0.010494
      f+3     :     0.024789
      f-3     :     0.020875
  4 C s       :     2.764518  s :     2.764518
      pz      :     0.767394  p :     2.601783
      px      :     1.017162
      py      :     0.817228
      dz2     :     0.234129  d :     0.910495
      dxz     :     0.146879
      dyz     :     0.196561
      dx2y2   :     0.159081
      dxy     :     0.173845
      f0      :     0.033511  f :     0.176710
      f+1     :     0.028371
      f-1     :     0.041409
      f+2     :     0.019876
      f-2     :     0.013277
      f+3     :     0.022189
      f-3     :     0.018076
  5 C s       :     2.762905  s :     2.762905
      pz      :     0.747150  p :     2.600659
      px      :     1.009057
      py      :     0.844452
      dz2     :     0.239913  d :     0.912797
      dxz     :     0.140745
      dyz     :     0.220797
      dx2y2   :     0.124241
      dxy     :     0.187100
      f0      :     0.031730  f :     0.178144
      f+1     :     0.026814
      f-1     :     0.042290
      f+2     :     0.026066
      f-2     :     0.022318
      f+3     :     0.015144
      f-3     :     0.013781
  6 C s       :     2.761649  s :     2.761649
      pz      :     0.737086  p :     2.600461
      px      :     1.007317
      py      :     0.856058
      dz2     :     0.240995  d :     0.914707
      dxz     :     0.135812
      dyz     :     0.235770
      dx2y2   :     0.110012
      dxy     :     0.192118
      f0      :     0.032884  f :     0.178676
      f+1     :     0.024849
      f-1     :     0.038772
      f+2     :     0.031399
      f-2     :     0.028209
      f+3     :     0.011492
      f-3     :     0.011070
  7 C s       :     2.761288  s :     2.761288
      pz      :     0.742985  p :     2.600445
      px      :     1.007302
      py      :     0.850158
      dz2     :     0.240399  d :     0.916440
      dxz     :     0.138927
      dyz     :     0.230081
      dx2y2   :     0.115996
      dxy     :     0.191036
      f0      :     0.032244  f :     0.178896
      f+1     :     0.025644
      f-1     :     0.040822
      f+2     :     0.028901
      f-2     :     0.025824
      f+3     :     0.013219
      f-3     :     0.012241
  8 C s       :     2.764937  s :     2.764937
      pz      :     0.765924  p :     2.604445
      px      :     1.010186
      py      :     0.828334
      dz2     :     0.235560  d :     0.915093
      dxz     :     0.151146
      dyz     :     0.207702
      dx2y2   :     0.137505
      dxy     :     0.183181
      f0      :     0.032469  f :     0.179045
      f+1     :     0.028497
      f-1     :     0.043855
      f+2     :     0.021923
      f-2     :     0.016389
      f+3     :     0.019308
      f-3     :     0.016604
  9 C s       :     2.758854  s :     2.758854
      pz      :     0.797137  p :     2.511000
      px      :     0.907802
      py      :     0.806062
      dz2     :     0.270824  d :     1.138087
      dxz     :     0.196688
      dyz     :     0.226733
      dx2y2   :     0.225230
      dxy     :     0.218612
      f0      :     0.038763  f :     0.256489
      f+1     :     0.041800
      f-1     :     0.050645
      f+2     :     0.030340
      f-2     :     0.027279
      f+3     :     0.038433
      f-3     :     0.029229
 10 F s       :     3.604907  s :     3.604907
      pz      :     1.827205  p :     5.200138
      px      :     1.833765
      py      :     1.539167
      dz2     :     0.003983  d :     0.029384
      dxz     :     0.000362
      dyz     :     0.005214
      dx2y2   :     0.011508
      dxy     :     0.008317
      f0      :     0.000114  f :     0.001438
      f+1     :     0.000032
      f-1     :     0.000256
      f+2     :     0.000199
      f-2     :     0.000018
      f+3     :     0.000420
      f-3     :     0.000398
 11 F s       :     3.608670  s :     3.608670
      pz      :     1.540094  p :     5.205535
      px      :     1.841273
      py      :     1.824168
      dz2     :     0.014503  d :     0.029041
      dxz     :     0.007979
      dyz     :     0.005573
      dx2y2   :     0.000486
      dxy     :     0.000501
      f0      :     0.000581  f :     0.001414
      f+1     :     0.000407
      f-1     :     0.000330
      f+2     :     0.000053
      f-2     :     0.000038
      f+3     :     0.000002
      f-3     :     0.000002
 12 F s       :     3.593504  s :     3.593504
      pz      :     1.786626  p :     5.164937
      px      :     1.825283
      py      :     1.553028
      dz2     :     0.003875  d :     0.030592
      dxz     :     0.001031
      dyz     :     0.007940
      dx2y2   :     0.010394
      dxy     :     0.007352
      f0      :     0.000137  f :     0.001529
      f+1     :     0.000013
      f-1     :     0.000281
      f+2     :     0.000319
      f-2     :     0.000105
      f+3     :     0.000352
      f-3     :     0.000323
 13 F s       :     3.596417  s :     3.596417
      pz      :     1.525009  p :     5.169507
      px      :     1.826647
      py      :     1.817851
      dz2     :     0.016218  d :     0.030100
      dxz     :     0.008008
      dyz     :     0.005389
      dx2y2   :     0.000250
      dxy     :     0.000235
      f0      :     0.000690  f :     0.001497
      f+1     :     0.000444
      f-1     :     0.000335
      f+2     :     0.000007
      f-2     :     0.000016
      f+3     :     0.000002
      f-3     :     0.000002
 14 F s       :     3.592728  s :     3.592728
      pz      :     1.720945  p :     5.158917
      px      :     1.821355
      py      :     1.616617
      dz2     :     0.004061  d :     0.030948
      dxz     :     0.002891
      dyz     :     0.011648
      dx2y2   :     0.006701
      dxy     :     0.005648
      f0      :     0.000170  f :     0.001547
      f+1     :     0.000018
      f-1     :     0.000345
      f+2     :     0.000392
      f-2     :     0.000257
      f+3     :     0.000205
      f-3     :     0.000159
 15 F s       :     3.591952  s :     3.591952
      pz      :     1.553504  p :     5.157711
      px      :     1.823857
      py      :     1.780351
      dz2     :     0.013532  d :     0.031042
      dxz     :     0.007306
      dyz     :     0.008411
      dx2y2   :     0.000676
      dxy     :     0.001117
      f0      :     0.000541  f :     0.001555
      f+1     :     0.000333
      f-1     :     0.000470
      f+2     :     0.000066
      f-2     :     0.000132
      f+3     :     0.000008
      f-3     :     0.000004
 16 F s       :     3.591530  s :     3.591530
      pz      :     1.641815  p :     5.153798
      px      :     1.821897
      py      :     1.690086
      dz2     :     0.006843  d :     0.031187
      dxz     :     0.004890
      dyz     :     0.012628
      dx2y2   :     0.003313
      dxy     :     0.003512
      f0      :     0.000249  f :     0.001560
      f+1     :     0.000103
      f-1     :     0.000490
      f+2     :     0.000301
      f-2     :     0.000288
      f+3     :     0.000082
      f-3     :     0.000048
 17 F s       :     3.591361  s :     3.591361
      pz      :     1.613599  p :     5.152801
      px      :     1.820978
      py      :     1.718224
      dz2     :     0.008547  d :     0.031212
      dxz     :     0.005719
      dyz     :     0.011859
      dx2y2   :     0.002324
      dxy     :     0.002763
      f0      :     0.000309  f :     0.001563
      f+1     :     0.000162
      f-1     :     0.000518
      f+2     :     0.000233
      f-2     :     0.000265
      f+3     :     0.000049
      f-3     :     0.000027
 18 F s       :     3.591363  s :     3.591363
      pz      :     1.689596  p :     5.151074
      px      :     1.820915
      py      :     1.640563
      dz2     :     0.004789  d :     0.031261
      dxz     :     0.003574
      dyz     :     0.012703
      dx2y2   :     0.005384
      dxy     :     0.004811
      f0      :     0.000191  f :     0.001567
      f+1     :     0.000036
      f-1     :     0.000409
      f+2     :     0.000387
      f-2     :     0.000284
      f+3     :     0.000154
      f-3     :     0.000108
 19 F s       :     3.591706  s :     3.591706
      pz      :     1.572983  p :     5.151387
      px      :     1.819478
      py      :     1.758926
      dz2     :     0.011740  d :     0.031254
      dxz     :     0.006871
      dyz     :     0.009826
      dx2y2   :     0.001157
      dxy     :     0.001661
      f0      :     0.000447  f :     0.001565
      f+1     :     0.000273
      f-1     :     0.000506
      f+2     :     0.000122
      f-2     :     0.000191
      f+3     :     0.000017
      f-3     :     0.000009
 20 F s       :     3.592609  s :     3.592609
      pz      :     1.764654  p :     5.151158
      px      :     1.819202
      py      :     1.567302
      dz2     :     0.003739  d :     0.031145
      dxz     :     0.001525
      dyz     :     0.009530
      dx2y2   :     0.009377
      dxy     :     0.006973
      f0      :     0.000152  f :     0.001566
      f+1     :     0.000008
      f-1     :     0.000294
      f+2     :     0.000367
      f-2     :     0.000163
      f+3     :     0.000313
      f-3     :     0.000269
 21 F s       :     3.591693  s :     3.591693
      pz      :     1.524634  p :     5.150665
      px      :     1.821334
      py      :     1.804696
      dz2     :     0.016422  d :     0.031396
      dxz     :     0.008066
      dyz     :     0.006245
      dx2y2   :     0.000283
      dxy     :     0.000380
      f0      :     0.000702  f :     0.001591
      f+1     :     0.000442
      f-1     :     0.000385
      f+2     :     0.000012
      f-2     :     0.000046
      f+3     :     0.000002
      f-3     :     0.000002
 22 F s       :     3.594873  s :     3.594873
      pz      :     1.788929  p :     5.147442
      px      :     1.808533
      py      :     1.549980
      dz2     :     0.004216  d :     0.030836
      dxz     :     0.000584
      dyz     :     0.007925
      dx2y2   :     0.011623
      dxy     :     0.006488
      f0      :     0.000154  f :     0.001644
      f+1     :     0.000017
      f-1     :     0.000310
      f+2     :     0.000338
      f-2     :     0.000070
      f+3     :     0.000349
      f-3     :     0.000405
 23 F s       :     3.595107  s :     3.595107
      pz      :     1.776239  p :     5.146497
      px      :     1.628742
      py      :     1.741516
      dz2     :     0.004068  d :     0.030957
      dxz     :     0.006672
      dyz     :     0.003554
      dx2y2   :     0.006965
      dxy     :     0.009698
      f0      :     0.000166  f :     0.001665
      f+1     :     0.000228
      f-1     :     0.000100
      f+2     :     0.000145
      f-2     :     0.000358
      f+3     :     0.000312
      f-3     :     0.000356
 24 F s       :     3.593754  s :     3.593754
      pz      :     1.525095  p :     5.146741
      px      :     1.809767
      py      :     1.811879
      dz2     :     0.018222  d :     0.031070
      dxz     :     0.006894
      dyz     :     0.005533
      dx2y2   :     0.000250
      dxy     :     0.000172
      f0      :     0.000833  f :     0.001666
      f+1     :     0.000427
      f-1     :     0.000370
      f+2     :     0.000022
      f-2     :     0.000011
      f+3     :     0.000001
      f-3     :     0.000002


                      *****************************
                      * MAYER POPULATION ANALYSIS *
                      *****************************

  NA   - Mulliken gross atomic population
  ZA   - Total nuclear charge
  QA   - Mulliken gross atomic charge
  VA   - Mayer's total valence
  BVA  - Mayer's bonded valence
  FA   - Mayer's free valence

  ATOM       NA         ZA         QA         VA         BVA        FA
  0 C      5.8559     6.0000     0.1441     4.6756     4.6756     0.0000
  1 O      8.4722     8.0000    -0.4722     1.9792     1.9792    -0.0000
  2 O      8.4865     8.0000    -0.4865     1.9606     1.9606     0.0000
  3 C      5.6573     6.0000     0.3427     3.8771     3.8771     0.0000
  4 C      5.6836     6.0000     0.3164     4.0651     4.0651     0.0000
  5 C      5.6664     6.0000     0.3336     4.1608     4.1608     0.0000
  6 C      5.6683     6.0000     0.3317     4.1549     4.1549    -0.0000
  7 C      5.6879     6.0000     0.3121     4.1349     4.1349    -0.0000
  8 C      5.6794     6.0000     0.3206     4.1830     4.1830     0.0000
  9 C      5.5234     6.0000     0.4766     4.5112     4.5112    -0.0000
 10 F      9.2117     9.0000    -0.2117     1.0770     1.0770     0.0000
 11 F      9.2180     9.0000    -0.2180     1.0622     1.0622     0.0000
 12 F      9.1833     9.0000    -0.1833     1.1262     1.1262     0.0000
 13 F      9.1914     9.0000    -0.1914     1.1171     1.1171     0.0000
 14 F      9.1760     9.0000    -0.1760     1.1377     1.1377     0.0000
 15 F      9.1744     9.0000    -0.1744     1.1410     1.1410     0.0000
 16 F      9.1705     9.0000    -0.1705     1.1462     1.1462    -0.0000
 17 F      9.1700     9.0000    -0.1700     1.1485     1.1485    -0.0000
 18 F      9.1682     9.0000    -0.1682     1.1523     1.1523    -0.0000
 19 F      9.1679     9.0000    -0.1679     1.1502     1.1502     0.0000
 20 F      9.1653     9.0000    -0.1653     1.1534     1.1534     0.0000
 21 F      9.1624     9.0000    -0.1624     1.1551     1.1551    -0.0000
 22 F      9.1551     9.0000    -0.1551     1.1635     1.1635     0.0000
 23 F      9.1524     9.0000    -0.1524     1.1679     1.1679     0.0000
 24 F      9.1526     9.0000    -0.1526     1.1660     1.1660     0.0000

  Mayer bond orders larger than 0.100000
B(  0-C ,  1-O ) :   1.8975 B(  0-C ,  2-O ) :   1.8723 B(  0-C ,  3-C ) :   0.8464 
B(  3-C ,  4-C ) :   0.9232 B(  3-C , 10-F ) :   1.0432 B(  3-C , 11-F ) :   1.0295 
B(  4-C ,  5-C ) :   0.9280 B(  4-C , 12-F ) :   1.0658 B(  4-C , 13-F ) :   1.0557 
B(  5-C ,  6-C ) :   0.9385 B(  5-C , 14-F ) :   1.0713 B(  5-C , 15-F ) :   1.0792 
B(  6-C ,  7-C ) :   0.9332 B(  6-C , 16-F ) :   1.0757 B(  6-C , 17-F ) :   1.0790 
B(  7-C ,  8-C ) :   0.9277 B(  7-C , 18-F ) :   1.0832 B(  7-C , 19-F ) :   1.0869 
B(  8-C ,  9-C ) :   0.9699 B(  8-C , 20-F ) :   1.0877 B(  8-C , 21-F ) :   1.0997 
B(  9-C , 22-F ) :   1.1430 B(  9-C , 23-F ) :   1.1490 B(  9-C , 24-F ) :   1.1546 


-------
TIMINGS
-------

Total SCF time: 0 days 0 hours 0 min 58 sec 

Total time                  ....      58.819 sec
Sum of individual times     ....      55.602 sec  ( 94.5%)

Fock matrix formation       ....      50.252 sec  ( 85.4%)
  Split-RI-J                ....       3.621 sec  (  7.2% of F)
  Chain of spheres X        ....      37.816 sec  ( 75.3% of F)
  XC integration            ....       4.641 sec  (  9.2% of F)
    Basis function eval.    ....       0.578 sec  ( 12.4% of XC)
    Density eval.           ....       0.932 sec  ( 20.1% of XC)
    XC-Functional eval.     ....       0.232 sec  (  5.0% of XC)
    XC-Potential eval.      ....       0.673 sec  ( 14.5% of XC)
Diagonalization             ....       0.237 sec  (  0.4%)
Density matrix formation    ....       0.064 sec  (  0.1%)
Population analysis         ....       0.224 sec  (  0.4%)
Initial guess               ....       0.339 sec  (  0.6%)
Orbital Transformation      ....       0.000 sec  (  0.0%)
Orbital Orthonormalization  ....       0.286 sec  (  0.5%)
DIIS solution               ....       0.091 sec  (  0.2%)
SOSCF solution              ....       1.421 sec  (  2.4%)
Grid generation             ....       2.976 sec  (  5.1%)

Maximum memory used throughout the entire SCF-calculation: 145.5 MB


-------------------------------------------------------------------------------
                          DFT DISPERSION CORRECTION                            
                                                                               
                              DFTD3 V3.1  Rev 1                                
                          USING Becke-Johnson damping                          
-------------------------------------------------------------------------------
The B3LYP functional is recognized
Active option DFTDOPT                   ...         4   

molecular C6(AA) [au] = 6621.087661 


            DFT-D V3
 parameters
 s6 scaling factor         :     1.0000 
 a1 scaling factor         :     0.3981 
 s8 scaling factor         :     1.9889 
 a2 scaling factor         :     4.4211 
 ad hoc parameters k1-k3   :    16.0000     1.3333    -4.0000 

 Edisp/kcal,au: -27.740874772691  -0.044207893203 
 E6   /kcal   : -13.195854336 
 E8   /kcal   : -14.545020437 
 % E8         :  52.431729554 

-------------------------   ----------------
Dispersion correction           -0.044207893
-------------------------   ----------------


-------------------------   --------------------
FINAL SINGLE POINT ENERGY     -1953.193560142062
-------------------------   --------------------

                                *** OPTIMIZATION RUN DONE ***

                            ***************************************
                            *     ORCA property calculations      *
                            ***************************************

                                    ---------------------
                                    Active property flags
                                    ---------------------
   (+) Dipole Moment


------------------------------------------------------------------------------
                       ORCA ELECTRIC PROPERTIES CALCULATION
------------------------------------------------------------------------------

Dipole Moment Calculation                       ... on
Quadrupole Moment Calculation                   ... off
Polarizability Calculation                      ... off
GBWName                                         ... rf_mecn_opt_B2L_D_B_01.gbw
Electron density                                ... rf_mecn_opt_B2L_D_B_01.scfp
The origin for moment calculation is the CENTER OF MASS  = (-0.107835, -0.031067  0.000474)

-------------
DIPOLE MOMENT
-------------
                                X             Y             Z
Electronic contribution:    -18.82315      -0.99541       1.84732
Nuclear contribution   :      9.85907       0.58661      -1.05731
                        -----------------------------------------
Total Dipole Moment    :     -8.96409      -0.40880       0.79000
                        -----------------------------------------
Magnitude (a.u.)       :      9.00811
Magnitude (Debye)      :     22.89680



--------------------
Rotational spectrum 
--------------------
 
Rotational constants in cm-1:     0.021283     0.003719     0.003666 
Rotational constants in MHz :   638.035652   111.505432   109.896440 

 Dipole components along the rotational axes: 
x,y,z [a.u.] :     8.959239     0.496202    -0.794923 
x,y,z [Debye]:    22.772575     1.261245    -2.020534 

 

Timings for individual modules:

Sum of individual times         ...     1225.225 sec (=  20.420 min)
GTO integral calculation        ...       17.941 sec (=   0.299 min)   1.5 %
SCF iterations                  ...      975.058 sec (=  16.251 min)  79.6 %
SCF Gradient evaluation         ...      230.865 sec (=   3.848 min)  18.8 %
Geometry relaxation             ...        1.360 sec (=   0.023 min)   0.1 %
                             ****ORCA TERMINATED NORMALLY****
TOTAL RUN TIME: 0 days 0 hours 20 minutes 32 seconds 328 msec
