
                                 *****************
                                 * O   R   C   A *
                                 *****************

                                            #,                                       
                                            ###                                      
                                            ####                                     
                                            #####                                    
                                            ######                                   
                                           ########,                                 
                                     ,,################,,,,,                         
                               ,,#################################,,                 
                          ,,##########################################,,             
                       ,#########################################, ''#####,          
                    ,#############################################,,   '####,        
                  ,##################################################,,,,####,       
                ,###########''''           ''''###############################       
              ,#####''   ,,,,##########,,,,          '''####'''          '####       
            ,##' ,,,,###########################,,,                        '##       
           ' ,,###''''                  '''############,,,                           
         ,,##''                                '''############,,,,        ,,,,,,###''
      ,#''                                            '''#######################'''  
     '                                                          ''''####''''         
             ,#######,   #######,   ,#######,      ##                                
            ,#'     '#,  ##    ##  ,#'     '#,    #''#        ######   ,####,        
            ##       ##  ##   ,#'  ##            #'  '#       #        #'  '#        
            ##       ##  #######   ##           ,######,      #####,   #    #        
            '#,     ,#'  ##    ##  '#,     ,#' ,#      #,         ##   #,  ,#        
             '#######'   ##     ##  '#######'  #'      '#     #####' # '####'        



                  #######################################################
                  #                        -***-                        #
                  #          Department of theory and spectroscopy      #
                  #    Directorship and core code : Frank Neese         #
                  #        Max Planck Institute fuer Kohlenforschung    #
                  #                Kaiser Wilhelm Platz 1               #
                  #                 D-45470 Muelheim/Ruhr               #
                  #                      Germany                        #
                  #                                                     #
                  #                  All rights reserved                #
                  #                        -***-                        #
                  #######################################################


                         Program Version 5.0.3 -  RELEASE  -


 With contributions from (in alphabetic order):
   Daniel Aravena         : Magnetic Suceptibility
   Michael Atanasov       : Ab Initio Ligand Field Theory (pilot matlab implementation)
   Alexander A. Auer      : GIAO ZORA, VPT2 properties, NMR spectrum
   Ute Becker             : Parallelization
   Giovanni Bistoni       : ED, misc. LED, open-shell LED, HFLD
   Martin Brehm           : Molecular dynamics
   Dmytro Bykov           : SCF Hessian
   Vijay G. Chilkuri      : MRCI spin determinant printing, contributions to CSF-ICE
   Dipayan Datta          : RHF DLPNO-CCSD density
   Achintya Kumar Dutta   : EOM-CC, STEOM-CC
   Dmitry Ganyushin       : Spin-Orbit,Spin-Spin,Magnetic field MRCI
   Miquel Garcia          : C-PCM and meta-GGA Hessian, CC/C-PCM, Gaussian charge scheme
   Yang Guo               : DLPNO-NEVPT2, F12-NEVPT2, CIM, IAO-localization
   Andreas Hansen         : Spin unrestricted coupled pair/coupled cluster methods
   Benjamin Helmich-Paris : MC-RPA, TRAH-SCF, COSX integrals
   Lee Huntington         : MR-EOM, pCC
   Robert Izsak           : Overlap fitted RIJCOSX, COSX-SCS-MP3, EOM
   Marcus Kettner         : VPT2
   Christian Kollmar      : KDIIS, OOCD, Brueckner-CCSD(T), CCSD density, CASPT2, CASPT2-K
   Simone Kossmann        : Meta GGA functionals, TD-DFT gradient, OOMP2, MP2 Hessian
   Martin Krupicka        : Initial AUTO-CI
   Lucas Lang             : DCDCAS
   Marvin Lechner         : AUTO-CI (C++ implementation), FIC-MRCC
   Dagmar Lenk            : GEPOL surface, SMD
   Dimitrios Liakos       : Extrapolation schemes; Compound Job, initial MDCI parallelization
   Dimitrios Manganas     : Further ROCIS development; embedding schemes
   Dimitrios Pantazis     : SARC Basis sets
   Anastasios Papadopoulos: AUTO-CI, single reference methods and gradients
   Taras Petrenko         : DFT Hessian,TD-DFT gradient, ASA, ECA, R-Raman, ABS, FL, XAS/XES, NRVS
   Peter Pinski           : DLPNO-MP2, DLPNO-MP2 Gradient
   Christoph Reimann      : Effective Core Potentials
   Marius Retegan         : Local ZFS, SOC
   Christoph Riplinger    : Optimizer, TS searches, QM/MM, DLPNO-CCSD(T), (RO)-DLPNO pert. Triples
   Tobias Risthaus        : Range-separated hybrids, TD-DFT gradient, RPA, STAB
   Michael Roemelt        : Original ROCIS implementation
   Masaaki Saitow         : Open-shell DLPNO-CCSD energy and density
   Barbara Sandhoefer     : DKH picture change effects
   Avijit Sen             : IP-ROCIS
   Kantharuban Sivalingam : CASSCF convergence, NEVPT2, FIC-MRCI
   Bernardo de Souza      : ESD, SOC TD-DFT
   Georgi Stoychev        : AutoAux, RI-MP2 NMR, DLPNO-MP2 response
   Willem Van den Heuvel  : Paramagnetic NMR
   Boris Wezisla          : Elementary symmetry handling
   Frank Wennmohs         : Technical directorship


 We gratefully acknowledge several colleagues who have allowed us to
 interface, adapt or use parts of their codes:
   Stefan Grimme, W. Hujo, H. Kruse, P. Pracht,  : VdW corrections, initial TS optimization,
                  C. Bannwarth, S. Ehlert          DFT functionals, gCP, sTDA/sTD-DF
   Ed Valeev, F. Pavosevic, A. Kumar             : LibInt (2-el integral package), F12 methods
   Garnet Chan, S. Sharma, J. Yang, R. Olivares  : DMRG
   Ulf Ekstrom                                   : XCFun DFT Library
   Mihaly Kallay                                 : mrcc  (arbitrary order and MRCC methods)
   Jiri Pittner, Ondrej Demel                    : Mk-CCSD
   Frank Weinhold                                : gennbo (NPA and NBO analysis)
   Christopher J. Cramer and Donald G. Truhlar   : smd solvation model
   Lars Goerigk                                  : TD-DFT with DH, B97 family of functionals
   V. Asgeirsson, H. Jonsson                     : NEB implementation
   FAccTs GmbH                                   : IRC, NEB, NEB-TS, DLPNO-Multilevel, CI-OPT
                                                   MM, QMMM, 2- and 3-layer-ONIOM, Crystal-QMMM,
                                                   LR-CPCM, SF, NACMEs, symmetry and pop. for TD-DFT,
                                                   nearIR, NL-DFT gradient (VV10), updates on ESD,
                                                   ML-optimized integration grids
   S Lehtola, MJT Oliveira, MAL Marques          : LibXC Library
   Liviu Ungur et al                             : ANISO software


 Your calculation uses the libint2 library for the computation of 2-el integrals
 For citations please refer to: http://libint.valeyev.net

 Your ORCA version has been built with support for libXC version: 5.1.0
 For citations please refer to: https://tddft.org/programs/libxc/

 This ORCA versions uses:
   CBLAS   interface :  Fast vector & matrix operations
   LAPACKE interface :  Fast linear algebra routines
   SCALAPACK package :  Parallel linear algebra routines
   Shared memory     :  Shared parallel matrices
   BLAS/LAPACK       :  OpenBLAS 0.3.15  USE64BITINT DYNAMIC_ARCH NO_AFFINITY SkylakeX SINGLE_THREADED
        Core in use  :  SkylakeX
   Copyright (c) 2011-2014, The OpenBLAS Project


Your calculation utilizes the atom-pairwise dispersion correction
with the Becke-Johnson damping scheme (D3BJ)
Cite in your paper:
S.Grimme, S.Ehrlich, L.Goerigk, J Comput Chem, (2011), 32, 1456–1465 
S.Grimme, J.Antony, S.Ehrlich and H.Krieg, J.Chem.Phys., 132, (2010), 154104 
   

Your calculation utilizes the SMD solvation module
Please cite in your paper:
A.V. Marenich, C.J. Cramer, D.G. Truhlar J. Phys. Chem. B, 113, (2009), 6378 

================================================================================

----- Orbital basis set information -----
Your calculation utilizes the basis: def2-TZVP
   F. Weigend and R. Ahlrichs, Phys. Chem. Chem. Phys. 7, 3297 (2005).

----- AuxJ basis set information -----
Your calculation utilizes the auxiliary basis: def2/J
   F. Weigend, Phys. Chem. Chem. Phys. 8, 1057 (2006).

================================================================================
                                        WARNINGS
                       Please study these warnings very carefully!
================================================================================


WARNING: your system is open-shell and RHF/RKS was chosen
  ===> : WILL SWITCH to UHF/UKS


WARNING: Geometry Optimization
  ===> : Switching off AutoStart
         For restart on a previous wavefunction, please use MOREAD

INFO   : the flag for use of the SHARK integral package has been found!

================================================================================
                                       INPUT FILE
================================================================================
NAME = rf_mecn_opt_B3L_C5_D_B.inp
|  1> !B3LYP def2-TZVP opt d3 TightSCF SlowConv defgrid2
|  2>  
|  3> %pal
|  4> nprocs 20
|  5> end
|  6>  
|  7> %scf
|  8> MaxIter 1500
|  9> end
| 10>  
| 11> %maxcore 8000
| 12>  
| 13> !CPCM
| 14> %cpcm smd true
| 15> SMDsolvent "ACETONITRILE"
| 16> end
| 17>  
| 18> * xyz -1 2
| 19> 6        4.790427000     -0.033865800     -0.529943200
| 20> 8        5.449345000     -1.206924000     -0.894594600
| 21> 8        4.978223000      1.323071000     -0.737377200
| 22> 6        3.506687600     -0.338741600      0.376153800
| 23> 6        2.222300000      0.400524800     -0.110681600
| 24> 6        0.900506800     -0.386389800      0.175703000
| 25> 6       -0.395261200      0.487294000      0.065549000
| 26> 6       -1.705693600     -0.364773800     -0.068373600
| 27> 6       -3.005136200      0.445344800      0.258164000
| 28> 6       -4.319880200     -0.214526000     -0.270540800
| 29> 9        3.211587400     -1.692050400      0.412735200
| 30> 9        3.741061800      0.055285800      1.689948800
| 31> 9        2.125696800      1.616867800      0.483236600
| 32> 9        2.314152400      0.589704000     -1.455769200
| 33> 9        0.794028800     -1.413561400     -0.700839000
| 34> 9        0.958350600     -0.884509000      1.435093400
| 35> 9       -0.498373400      1.260265600      1.173340200
| 36> 9       -1.641790400     -1.418189000      0.779523800
| 37> 9       -1.792381400     -0.831391600     -1.336863600
| 38> 9       -2.918792200      1.679227200     -0.295171200
| 39> 9       -3.119771000      0.573779800      1.598579800
| 40> 9       -4.383115600     -1.504377600      0.089127600
| 41> 9       -5.365669800      0.430528600      0.260394200
| 42> 9       -4.396020400     -0.128550600     -1.602941800
| 43> *
| 44> 
| 45>                          ****END OF INPUT****
================================================================================

                       *****************************
                       * Geometry Optimization Run *
                       *****************************

Geometry optimization settings:
Update method            Update   .... BFGS
Choice of coordinates    CoordSys .... Z-matrix Internals
Initial Hessian          InHess   .... Almoef's Model

Convergence Tolerances:
Energy Change            TolE     ....  5.0000e-06 Eh
Max. Gradient            TolMAXG  ....  3.0000e-04 Eh/bohr
RMS Gradient             TolRMSG  ....  1.0000e-04 Eh/bohr
Max. Displacement        TolMAXD  ....  4.0000e-03 bohr
RMS Displacement         TolRMSD  ....  2.0000e-03 bohr
Strict Convergence                ....  False
------------------------------------------------------------------------------
                        ORCA OPTIMIZATION COORDINATE SETUP
------------------------------------------------------------------------------

The optimization will be done in new redundant internal coordinates
Making redundant internal coordinates   ...  (new redundants) done
Evaluating the initial hessian          ...  (Almloef) done
Evaluating the coordinates              ...  done
Calculating the B-matrix                .... done
Calculating the G-matrix                .... done
Diagonalizing the G-matrix              .... done
Small eigenvalue found = 5.683e-03
Small eigenvalue found = 1.650e-02
The first mode is                       ....   53
The number of degrees of freedom        ....   66

    -----------------------------------------------------------------
                    Redundant Internal Coordinates


    -----------------------------------------------------------------
         Definition                    Initial Value    Approx d2E/dq
    -----------------------------------------------------------------
      1. B(O   1,C   0)                  1.3940         0.551454   
      2. B(O   2,C   0)                  1.3855         0.568952   
      3. B(C   3,C   0)                  1.6006         0.288221   
      4. B(C   4,C   3)                  1.5599         0.334759   
      5. B(C   5,C   4)                  1.5647         0.328824   
      6. B(C   6,C   5)                  1.5667         0.326486   
      7. B(C   7,C   6)                  1.5688         0.323927   
      8. B(C   8,C   7)                  1.5657         0.327637   
      9. B(C   9,C   8)                  1.5632         0.330714   
     10. B(F  10,C   3)                  1.3856         0.528443   
     11. B(F  11,C   3)                  1.3915         0.517117   
     12. B(F  12,C   4)                  1.3570         0.586881   
     13. B(F  13,C   4)                  1.3614         0.577499   
     14. B(F  14,C   5)                  1.3545         0.592326   
     15. B(F  15,C   5)                  1.3556         0.590092   
     16. B(F  16,C   6)                  1.3547         0.591865   
     17. B(F  17,C   7)                  1.3538         0.593973   
     18. B(F  18,C   7)                  1.3544         0.592672   
     19. B(F  19,C   8)                  1.3550         0.591238   
     20. B(F  20,C   8)                  1.3514         0.599114   
     21. B(F  21,C   9)                  1.3406         0.623533   
     22. B(F  22,C   9)                  1.3385         0.628179   
     23. B(F  23,C   9)                  1.3373         0.630929   
     24. A(O   1,C   0,O   2)          136.1318         0.413163   
     25. A(O   2,C   0,C   3)          112.3347         0.371210   
     26. A(O   1,C   0,C   3)          111.5249         0.369222   
     27. A(C   4,C   3,F  10)          107.2033         0.374492   
     28. A(C   0,C   3,C   4)          113.1687         0.341363   
     29. A(C   4,C   3,F  11)          107.4072         0.373095   
     30. A(C   0,C   3,F  10)          111.8265         0.364982   
     31. A(F  10,C   3,F  11)          106.7094         0.399684   
     32. A(C   0,C   3,F  11)          110.2099         0.363632   
     33. A(F  12,C   4,F  13)          108.2194         0.415201   
     34. A(C   3,C   4,C   5)          113.5839         0.349005   
     35. A(C   3,C   4,F  13)          108.5818         0.380286   
     36. A(C   5,C   4,F  13)          107.9208         0.379109   
     37. A(C   5,C   4,F  12)          108.0911         0.380169   
     38. A(C   3,C   4,F  12)          110.2926         0.381351   
     39. A(C   4,C   5,C   6)          113.9128         0.347536   
     40. A(F  14,C   5,F  15)          109.0206         0.417483   
     41. A(C   6,C   5,F  15)          107.7906         0.380059   
     42. A(C   4,C   5,F  15)          108.5900         0.380529   
     43. A(C   4,C   5,F  14)          109.2282         0.380779   
     44. A(C   6,C   5,F  14)          108.2026         0.380308   
     45. A(C   5,C   6,C   7)          113.2023         0.346660   
     46. A(C   7,C   6,F  16)          108.4284         0.379738   
     47. A(C   5,C   6,F  16)          108.8835         0.380256   
     48. A(C   8,C   7,F  18)          108.6915         0.380579   
     49. A(C   6,C   7,F  18)          108.6955         0.379828   
     50. A(C   8,C   7,F  17)          108.1296         0.380723   
     51. A(C   6,C   7,F  17)          109.2524         0.379972   
     52. A(C   6,C   7,C   8)          113.2298         0.346865   
     53. A(F  17,C   7,F  18)          108.7561         0.418014   
     54. A(F  19,C   8,F  20)          108.8987         0.418476   
     55. A(C   7,C   8,C   9)          114.1471         0.348078   
     56. A(C   9,C   8,F  20)          107.7127         0.381912   
     57. A(C   7,C   8,F  20)          109.0521         0.381293   
     58. A(C   9,C   8,F  19)          107.4499         0.381036   
     59. A(C   7,C   8,F  19)          109.4572         0.380419   
     60. A(F  22,C   9,F  23)          108.6464         0.426961   
     61. A(F  21,C   9,F  23)          109.0552         0.426394   
     62. A(C   8,C   9,F  23)          110.9604         0.385362   
     63. A(F  21,C   9,F  22)          108.6877         0.426061   
     64. A(C   8,C   9,F  22)          108.6349         0.385069   
     65. A(C   8,C   9,F  21)          110.7995         0.384572   
     66. D(F  10,C   3,C   0,O   2)    171.0025         0.006601   
     67. D(C   4,C   3,C   0,O   1)   -131.0839         0.006601   
     68. D(F  11,C   3,C   0,O   1)    108.6317         0.006601   
     69. D(F  10,C   3,C   0,O   1)     -9.8890         0.006601   
     70. D(F  11,C   3,C   0,O   2)    -70.4768         0.006601   
     71. D(C   4,C   3,C   0,O   2)     49.8076         0.006601   
     72. D(F  13,C   4,C   3,C   0)     28.5784         0.009100   
     73. D(F  12,C   4,C   3,F  11)     32.0233         0.009100   
     74. D(C   5,C   4,C   3,C   0)    148.6429         0.009100   
     75. D(F  12,C   4,C   3,C   0)    -89.8453         0.009100   
     76. D(C   5,C   4,C   3,F  10)     24.8733         0.009100   
     77. D(C   5,C   4,C   3,F  11)    -89.4885         0.009100   
     78. D(F  12,C   4,C   3,F  10)    146.3851         0.009100   
     79. D(F  13,C   4,C   3,F  10)    -95.1911         0.009100   
     80. D(F  13,C   4,C   3,F  11)    150.4470         0.009100   
     81. D(F  15,C   5,C   4,F  13)    164.2540         0.008811   
     82. D(F  15,C   5,C   4,F  12)    -78.9166         0.008811   
     83. D(F  15,C   5,C   4,C   3)     43.8158         0.008811   
     84. D(F  14,C   5,C   4,F  12)    162.3014         0.008811   
     85. D(F  14,C   5,C   4,F  13)     45.4721         0.008811   
     86. D(F  14,C   5,C   4,C   3)    -74.9661         0.008811   
     87. D(C   6,C   5,C   4,F  13)    -75.6292         0.008811   
     88. D(C   6,C   5,C   4,F  12)     41.2001         0.008811   
     89. D(C   6,C   5,C   4,C   3)    163.9326         0.008811   
     90. D(F  16,C   6,C   5,F  15)     44.2190         0.008172   
     91. D(F  16,C   6,C   5,F  14)    161.9826         0.008172   
     92. D(F  16,C   6,C   5,C   4)    -76.3465         0.008172   
     93. D(C   7,C   6,C   5,C   4)    162.9815         0.008172   
     94. D(C   7,C   6,C   5,F  14)     41.3107         0.008172   
     95. D(C   7,C   6,C   5,F  15)    -76.4529         0.008172   
     96. D(C   8,C   7,C   6,C   5)    162.3638         0.008059   
     97. D(F  18,C   7,C   6,F  16)    162.3257         0.008059   
     98. D(F  18,C   7,C   6,C   5)    -76.7446         0.008059   
     99. D(F  17,C   7,C   6,F  16)    -79.1358         0.008059   
    100. D(F  17,C   7,C   6,C   5)     41.7939         0.008059   
    101. D(C   8,C   7,C   6,F  16)     41.4341         0.008059   
    102. D(F  20,C   8,C   7,F  18)    162.0243         0.008755   
    103. D(F  20,C   8,C   7,F  17)     44.1231         0.008755   
    104. D(F  20,C   8,C   7,C   6)    -77.0818         0.008755   
    105. D(F  19,C   8,C   7,F  18)    -78.9355         0.008755   
    106. D(F  19,C   8,C   7,F  17)    163.1633         0.008755   
    107. D(F  19,C   8,C   7,C   6)     41.9584         0.008755   
    108. D(C   9,C   8,C   7,F  18)     41.5227         0.008755   
    109. D(C   9,C   8,C   7,F  17)    -76.3785         0.008755   
    110. D(C   9,C   8,C   7,C   6)    162.4166         0.008755   
    111. D(F  23,C   9,C   8,F  20)    167.4828         0.008903   
    112. D(F  23,C   9,C   8,F  19)     50.3013         0.008903   
    113. D(F  23,C   9,C   8,C   7)    -71.2711         0.008903   
    114. D(F  22,C   9,C   8,F  20)     48.1091         0.008903   
    115. D(F  22,C   9,C   8,F  19)    -69.0724         0.008903   
    116. D(F  22,C   9,C   8,C   7)    169.3552         0.008903   
    117. D(F  21,C   9,C   8,F  20)    -71.2185         0.008903   
    118. D(F  21,C   9,C   8,F  19)    171.5999         0.008903   
    119. D(F  21,C   9,C   8,C   7)     50.0276         0.008903   
    -----------------------------------------------------------------

Number of atoms                         .... 24
Number of degrees of freedom            .... 119

         *************************************************************
         *                GEOMETRY OPTIMIZATION CYCLE   1            *
         *************************************************************
---------------------------------
CARTESIAN COORDINATES (ANGSTROEM)
---------------------------------
  C      4.790427   -0.033866   -0.529943
  O      5.449345   -1.206924   -0.894595
  O      4.978223    1.323071   -0.737377
  C      3.506688   -0.338742    0.376154
  C      2.222300    0.400525   -0.110682
  C      0.900507   -0.386390    0.175703
  C     -0.395261    0.487294    0.065549
  C     -1.705694   -0.364774   -0.068374
  C     -3.005136    0.445345    0.258164
  C     -4.319880   -0.214526   -0.270541
  F      3.211587   -1.692050    0.412735
  F      3.741062    0.055286    1.689949
  F      2.125697    1.616868    0.483237
  F      2.314152    0.589704   -1.455769
  F      0.794029   -1.413561   -0.700839
  F      0.958351   -0.884509    1.435093
  F     -0.498373    1.260266    1.173340
  F     -1.641790   -1.418189    0.779524
  F     -1.792381   -0.831392   -1.336864
  F     -2.918792    1.679227   -0.295171
  F     -3.119771    0.573780    1.598580
  F     -4.383116   -1.504378    0.089128
  F     -5.365670    0.430529    0.260394
  F     -4.396020   -0.128551   -1.602942

----------------------------
CARTESIAN COORDINATES (A.U.)
----------------------------
  NO LB      ZA    FRAG     MASS         X           Y           Z
   0 C     6.0000    0    12.011    9.052595   -0.063997   -1.001448
   1 O     8.0000    0    15.999   10.297770   -2.280756   -1.690539
   2 O     8.0000    0    15.999    9.407478    2.500242   -1.393441
   3 C     6.0000    0    12.011    6.626679   -0.640129    0.710828
   4 C     6.0000    0    12.011    4.199538    0.756882   -0.209158
   5 C     6.0000    0    12.011    1.701711   -0.730171    0.332031
   6 C     6.0000    0    12.011   -0.746935    0.920852    0.123870
   7 C     6.0000    0    12.011   -3.223294   -0.689323   -0.129207
   8 C     6.0000    0    12.011   -5.678884    0.841580    0.487859
   9 C     6.0000    0    12.011   -8.163391   -0.405395   -0.511248
  10 F     9.0000    0    18.998    6.069021   -3.197512    0.779956
  11 F     9.0000    0    18.998    7.069582    0.104475    3.193540
  12 F     9.0000    0    18.998    4.016985    3.055437    0.913185
  13 F     9.0000    0    18.998    4.373114    1.114379   -2.751005
  14 F     9.0000    0    18.998    1.500497   -2.671244   -1.324394
  15 F     9.0000    0    18.998    1.811020   -1.671480    2.711934
  16 F     9.0000    0    18.998   -0.941789    2.381557    2.217292
  17 F     9.0000    0    18.998   -3.102534   -2.679989    1.473086
  18 F     9.0000    0    18.998   -3.387110   -1.571102   -2.526306
  19 F     9.0000    0    18.998   -5.515718    3.173280   -0.557793
  20 F     9.0000    0    18.998   -5.895513    1.084287    3.020878
  21 F     9.0000    0    18.998   -8.282888   -2.842862    0.168427
  22 F     9.0000    0    18.998  -10.139646    0.813581    0.492074
  23 F     9.0000    0    18.998   -8.307275   -0.242925   -3.029121

--------------------------------
INTERNAL COORDINATES (ANGSTROEM)
--------------------------------
 C      0   0   0     0.000000000000     0.00000000     0.00000000
 O      1   0   0     1.393990356793     0.00000000     0.00000000
 O      1   2   0     1.385486802956   136.13177198     0.00000000
 C      1   2   3     1.600608594862   111.52489317   181.18992567
 C      4   1   2     1.559863783763   113.16872737   228.91614990
 C      5   4   1     1.564732561934   113.58394786   148.64287440
 C      6   5   4     1.566675459667   113.91280616   163.93256239
 C      7   6   5     1.568817348692   113.20226571   162.98152714
 C      8   7   6     1.565717094808   113.22984595   162.36375422
 C      9   8   7     1.563173062643   114.14707705   162.41661495
 F      4   1   2     1.385592665621   111.82651119   350.11101305
 F      4   1   2     1.391490625050   110.20991618   108.63170802
 F      5   4   1     1.357041377479   110.29260564   270.15468021
 F      5   4   1     1.361428031433   108.58179722    28.57841973
 F      6   5   4     1.354527570075   109.22822656   285.03385927
 F      6   5   4     1.355556277776   108.59004089    43.81583148
 F      7   6   5     1.354739297058   108.88346185   283.65347401
 F      8   7   6     1.353771473879   109.25240264    41.79387651
 F      8   7   6     1.354368423305   108.69554158   283.25540020
 F      9   8   7     1.355028009646   109.45719767    41.95842364
 F      9   8   7     1.351425618925   109.05210362   282.91820052
 F     10   9   8     1.340551089588   110.79953142    50.02756898
 F     10   9   8     1.338530275591   108.63493714   169.35523750
 F     10   9   8     1.337341214598   110.96044107   288.72891896

---------------------------
INTERNAL COORDINATES (A.U.)
---------------------------
 C      0   0   0     0.000000000000     0.00000000     0.00000000
 O      1   0   0     2.634260007667     0.00000000     0.00000000
 O      1   2   0     2.618190619750   136.13177198     0.00000000
 C      1   2   3     3.024711891890   111.52489317   181.18992567
 C      4   1   2     2.947715357535   113.16872737   228.91614990
 C      5   4   1     2.956916014884   113.58394786   148.64287440
 C      6   5   4     2.960587559506   113.91280616   163.93256239
 C      7   6   5     2.964635143173   113.20226571   162.98152714
 C      8   7   6     2.958776512386   113.22984595   162.36375422
 C      9   8   7     2.953968988318   114.14707705   162.41661495
 F      4   1   2     2.618390671194   111.82651119   350.11101305
 F      4   1   2     2.629536199263   110.20991618   108.63170802
 F      5   4   1     2.564436555835   110.29260564   270.15468021
 F      5   4   1     2.572726130452   108.58179722    28.57841973
 F      6   5   4     2.559686148288   109.22822656   285.03385927
 F      6   5   4     2.561630124115   108.59004089    43.81583148
 F      7   6   5     2.560086254300   108.88346185   283.65347401
 F      8   7   6     2.558257333546   109.25240264    41.79387651
 F      8   7   6     2.559385404477   108.69554158   283.25540020
 F      9   8   7     2.560631842023   109.45719767    41.95842364
 F      9   8   7     2.553824310132   109.05210362   282.91820052
 F     10   9   8     2.533274427850   110.79953142    50.02756898
 F     10   9   8     2.529455642830   108.63493714   169.35523750
 F     10   9   8     2.527208643196   110.96044107   288.72891896

---------------------
BASIS SET INFORMATION
---------------------
There are 3 groups of distinct atoms

 Group   1 Type C   : 11s6p2d1f contracted to 5s3p2d1f pattern {62111/411/11/1}
 Group   2 Type O   : 11s6p2d1f contracted to 5s3p2d1f pattern {62111/411/11/1}
 Group   3 Type F   : 11s6p2d1f contracted to 5s3p2d1f pattern {62111/411/11/1}

Atom   0C    basis set group =>   1
Atom   1O    basis set group =>   2
Atom   2O    basis set group =>   2
Atom   3C    basis set group =>   1
Atom   4C    basis set group =>   1
Atom   5C    basis set group =>   1
Atom   6C    basis set group =>   1
Atom   7C    basis set group =>   1
Atom   8C    basis set group =>   1
Atom   9C    basis set group =>   1
Atom  10F    basis set group =>   3
Atom  11F    basis set group =>   3
Atom  12F    basis set group =>   3
Atom  13F    basis set group =>   3
Atom  14F    basis set group =>   3
Atom  15F    basis set group =>   3
Atom  16F    basis set group =>   3
Atom  17F    basis set group =>   3
Atom  18F    basis set group =>   3
Atom  19F    basis set group =>   3
Atom  20F    basis set group =>   3
Atom  21F    basis set group =>   3
Atom  22F    basis set group =>   3
Atom  23F    basis set group =>   3
---------------------------------
AUXILIARY/J BASIS SET INFORMATION
---------------------------------
There are 3 groups of distinct atoms

 Group   1 Type C   : 12s5p4d2f1g contracted to 6s4p3d1f1g pattern {711111/2111/211/2/1}
 Group   2 Type O   : 12s5p4d2f1g contracted to 6s4p3d1f1g pattern {711111/2111/211/2/1}
 Group   3 Type F   : 12s5p4d2f1g contracted to 6s4p3d1f1g pattern {711111/2111/211/2/1}

Atom   0C    basis set group =>   1
Atom   1O    basis set group =>   2
Atom   2O    basis set group =>   2
Atom   3C    basis set group =>   1
Atom   4C    basis set group =>   1
Atom   5C    basis set group =>   1
Atom   6C    basis set group =>   1
Atom   7C    basis set group =>   1
Atom   8C    basis set group =>   1
Atom   9C    basis set group =>   1
Atom  10F    basis set group =>   3
Atom  11F    basis set group =>   3
Atom  12F    basis set group =>   3
Atom  13F    basis set group =>   3
Atom  14F    basis set group =>   3
Atom  15F    basis set group =>   3
Atom  16F    basis set group =>   3
Atom  17F    basis set group =>   3
Atom  18F    basis set group =>   3
Atom  19F    basis set group =>   3
Atom  20F    basis set group =>   3
Atom  21F    basis set group =>   3
Atom  22F    basis set group =>   3
Atom  23F    basis set group =>   3


           ************************************************************
           *        Program running with 20 parallel MPI-processes    *
           *              working on a common directory               *
           ************************************************************
------------------------------------------------------------------------------
                           ORCA GTO INTEGRAL CALCULATION
                           -- RI-GTO INTEGRALS CHOSEN --
------------------------------------------------------------------------------
------------------------------------------------------------------------------
                   ___                                                        
                  /   \      - P O W E R E D   B Y -                         
                 /     \                                                     
                 |  |  |   _    _      __       _____    __    __             
                 |  |  |  | |  | |    /  \     |  _  \  |  |  /  |          
                  \  \/   | |  | |   /    \    | | | |  |  | /  /          
                 / \  \   | |__| |  /  /\  \   | |_| |  |  |/  /          
                |  |  |   |  __  | /  /__\  \  |    /   |      \           
                |  |  |   | |  | | |   __   |  |    \   |  |\   \          
                \     /   | |  | | |  |  |  |  | |\  \  |  | \   \       
                 \___/    |_|  |_| |__|  |__|  |_| \__\ |__|  \__/        
                                                                              
                      - O R C A' S   B I G   F R I E N D -                    
                                      &                                       
                       - I N T E G R A L  F E E D E R -                       
                                                                              
 v1 FN, 2020, v2 2021                                                         
------------------------------------------------------------------------------


Reading SHARK input file rf_mecn_opt_B3L_C5_D_B.SHARKINP.tmp ... ok
----------------------
SHARK INTEGRAL PACKAGE
----------------------

Number of atoms                             ...     24
Number of basis functions                   ...    744
Number of shells                            ...    264
Maximum angular momentum                    ...      3
Integral batch strategy                     ... SHARK/LIBINT Hybrid
RI-J (if used) integral strategy            ... SPLIT-RIJ (Revised 2003 algorithm where possible)
Printlevel                                  ...      1
Contraction scheme used                     ... SEGMENTED contraction
Coulomb Range Separation                    ... NOT USED
Exchange Range Separation                   ... NOT USED
Finite Nucleus Model                        ... NOT USED
Auxiliary Coulomb fitting basis             ... AVAILABLE
   # of basis functions in Aux-J            ...   1176
   # of shells in Aux-J                     ...    360
   Maximum angular momentum in Aux-J        ...      4
Auxiliary J/K fitting basis                 ... NOT available
Auxiliary Correlation fitting basis         ... NOT available
Auxiliary 'external' fitting basis          ... NOT available
Integral threshold                          ...     2.500000e-11
Primitive cut-off                           ...     2.500000e-12
Primitive pair pre-selection threshold      ...     2.500000e-12

Calculating pre-screening integrals         ... done (  0.0 sec) Dimension = 264
Organizing shell pair data                  ... done (  0.3 sec)
Shell pair information
Total number of shell pairs                 ...     34980
Shell pairs after pre-screening             ...     21367
Total number of primitive shell pairs       ...    115968
Primitive shell pairs kept                  ...     45490
          la=0 lb=0:   3987 shell pairs
          la=1 lb=0:   5806 shell pairs
          la=1 lb=1:   2036 shell pairs
          la=2 lb=0:   3175 shell pairs
          la=2 lb=1:   2358 shell pairs
          la=2 lb=2:    669 shell pairs
          la=3 lb=0:   1443 shell pairs
          la=3 lb=1:   1134 shell pairs
          la=3 lb=2:    611 shell pairs
          la=3 lb=3:    148 shell pairs

Calculating one electron integrals          ... done (  0.0 sec)
Calculating RI/J V-Matrix + Cholesky decomp.... done (  0.1 sec)
Calculating Nuclear repulsion               ... done (  0.0 sec) ENN=   2588.978657418115 Eh

SHARK setup successfully completed in   0.9 seconds

Maximum memory used throughout the entire GTOINT-calculation: 38.2 MB


           ************************************************************
           *        Program running with 20 parallel MPI-processes    *
           *              working on a common directory               *
           ************************************************************
-------------------------------------------------------------------------------
                                 ORCA SCF
-------------------------------------------------------------------------------

------------
SCF SETTINGS
------------
Hamiltonian:
 Density Functional     Method          .... DFT(GTOs)
 Exchange Functional    Exchange        .... B88
   X-Alpha parameter    XAlpha          ....  0.666667
   Becke's b parameter  XBeta           ....  0.004200
 Correlation Functional Correlation     .... LYP
 LDA part of GGA corr.  LDAOpt          .... VWN-5
 Gradients option       PostSCFGGA      .... off
 Hybrid DFT is turned on
   Fraction HF Exchange ScalHFX         ....  0.200000
   Scaling of DF-GGA-X  ScalDFX         ....  0.720000
   Scaling of DF-GGA-C  ScalDFC         ....  0.810000
   Scaling of DF-LDA-C  ScalLDAC        ....  1.000000
   Perturbative correction              ....  0.000000
   Density functional embedding theory  .... OFF
   NL short-range parameter             ....  4.800000
 RI-approximation to the Coulomb term is turned on
   Number of AuxJ basis functions       .... 1176
   RIJ-COSX (HFX calculated with COS-X)).... on


General Settings:
 Integral files         IntName         .... rf_mecn_opt_B3L_C5_D_B
 Hartree-Fock type      HFTyp           .... UHF
 Total Charge           Charge          ....   -1
 Multiplicity           Mult            ....    2
 Number of Electrons    NEL             ....  191
 Basis Dimension        Dim             ....  744
 Nuclear Repulsion      ENuc            ....   2588.9786574181 Eh

Convergence Acceleration:
 DIIS                   CNVDIIS         .... on
   Start iteration      DIISMaxIt       ....     0
   Startup error        DIISStart       ....  0.200000
   # of expansion vecs  DIISMaxEq       ....     5
   Bias factor          DIISBfac        ....   1.050
   Max. coefficient     DIISMaxC        ....  10.000
 Trust-Rad. Augm. Hess. CNVTRAH         .... auto
   Auto Start mean grad. ratio tolernc. ....  1.125000
   Auto Start start iteration           ....    20
   Auto Start num. interpolation iter.  ....    10
   Max. Number of Micro iterations      ....    16
   Max. Number of Macro iterations      .... Maxiter - #DIIS iter
   Number of Davidson start vectors     ....     2
   Converg. threshold I  (grad. norm)   ....   1.000e-05
   Converg. threshold II (energy diff.) ....   1.000e-08
   Grad. Scal. Fac. for Micro threshold ....   0.100
   Minimum threshold for Micro iter.    ....   0.010
   NR start threshold (gradient norm)   ....   0.001
   Initial trust radius                 ....   0.400
   Minimum AH scaling param. (alpha)    ....   1.000
   Maximum AH scaling param. (alpha)    .... 1000.000
   Orbital update algorithm             .... Taylor
   White noise on init. David. guess    .... on
   Maximum white noise                  ....   0.010
   Quad. conv. algorithm                .... NR
 SOSCF                  CNVSOSCF        .... off
 Level Shifting         CNVShift        .... on
   Level shift para.    LevelShift      ....    0.2500
   Turn off err/grad.   ShiftErr        ....    0.0000
 Zerner damping         CNVZerner       .... off
 Static damping         CNVDamp         .... on
   Fraction old density DampFac         ....    0.8500
   Max. Damping (<1)    DampMax         ....    0.9800
   Min. Damping (>=0)   DampMin         ....    0.0000
   Turn off err/grad.   DampErr         ....    0.0300
 Fernandez-Rico         CNVRico         .... off

SCF Procedure:
 Maximum # iterations   MaxIter         ....  1500
 SCF integral mode      SCFMode         .... Direct
   Integral package                     .... SHARK and LIBINT hybrid scheme
 Reset frequency        DirectResetFreq ....    20
 Integral Threshold     Thresh          ....  2.500e-11 Eh
 Primitive CutOff       TCut            ....  2.500e-12 Eh

Convergence Tolerance:
 Convergence Check Mode ConvCheckMode   .... Total+1el-Energy
 Convergence forced     ConvForced      .... 0
 Energy Change          TolE            ....  1.000e-08 Eh
 1-El. energy change                    ....  1.000e-05 Eh
 DIIS Error             TolErr          ....  5.000e-07


Diagonalization of the overlap matrix:
Smallest eigenvalue                        ... 6.774e-05
Time for diagonalization                   ...    0.115 sec
Threshold for overlap eigenvalues          ... 1.000e-08
Number of eigenvalues below threshold      ... 0
Time for construction of square roots      ...    0.059 sec
Total time needed                          ...    0.178 sec

Time for model grid setup =    0.165 sec

------------------------------
INITIAL GUESS: MODEL POTENTIAL
------------------------------
Loading Hartree-Fock densities                     ... done
Calculating cut-offs                               ... done
Initializing the effective Hamiltonian             ... done
Setting up the integral package (SHARK)            ... done
Starting the Coulomb interaction                   ... done (   0.2 sec)
Reading the grid                                   ... done
Mapping shells                                     ... done
Starting the XC term evaluation                    ... done (   0.1 sec)
  promolecular density results
     # of electrons  =    189.999877799
     EX              =   -198.088950564
     EC              =     -7.131238310
     EX+EC           =   -205.220188874
Transforming the Hamiltonian                       ... done (   0.0 sec)
Diagonalizing the Hamiltonian                      ... done (   0.1 sec)
Back transforming the eigenvectors                 ... done (   0.0 sec)
Now organizing SCF variables                       ... done
                      ------------------
                      INITIAL GUESS DONE (   0.7 sec)
                      ------------------
-------------------
DFT GRID GENERATION
-------------------

General Integration Accuracy     IntAcc      ... 4.388
Radial Grid Type                 RadialGrid  ... OptM3 with GC (2021)
Angular Grid (max. ang.)         AngularGrid ... 4 (Lebedev-302)
Angular grid pruning method      GridPruning ... 4 (adaptive)
Weight generation scheme         WeightScheme... Becke
Basis function cutoff            BFCut       ... 1.0000e-11
Integration weight cutoff        WCut        ... 1.0000e-14
Angular grids for H and He will be reduced by one unit
Partially contracted basis set               ... off
Rotationally invariant grid construction     ... off

Total number of grid points                  ...   145512
Total number of batches                      ...     2284
Average number of points per batch           ...       63
Average number of grid points per atom       ...     6063
Time for grid setup =    0.790 sec

--------------------
COSX GRID GENERATION
--------------------

GRIDX 1
-------
General Integration Accuracy     IntAcc      ... 3.816
Radial Grid Type                 RadialGrid  ... OptM3 with GC (2021)
Angular Grid (max. ang.)         AngularGrid ... 1 (Lebedev-50)
Angular grid pruning method      GridPruning ... 4 (adaptive)
Weight generation scheme         WeightScheme... Becke
Basis function cutoff            BFCut       ... 1.0000e-11
Integration weight cutoff        WCut        ... 1.0000e-14
Angular grids for H and He will be reduced by one unit
Partially contracted basis set               ... on
Rotationally invariant grid construction     ... off

Total number of grid points                  ...    18282
Total number of batches                      ...      297
Average number of points per batch           ...       61
Average number of grid points per atom       ...      762
UseSFitting                                  ... on

GRIDX 2
-------
General Integration Accuracy     IntAcc      ... 4.020
Radial Grid Type                 RadialGrid  ... OptM3 with GC (2021)
Angular Grid (max. ang.)         AngularGrid ... 2 (Lebedev-110)
Angular grid pruning method      GridPruning ... 4 (adaptive)
Weight generation scheme         WeightScheme... Becke
Basis function cutoff            BFCut       ... 1.0000e-11
Integration weight cutoff        WCut        ... 1.0000e-14
Angular grids for H and He will be reduced by one unit
Partially contracted basis set               ... on
Rotationally invariant grid construction     ... off

Total number of grid points                  ...    43385
Total number of batches                      ...      694
Average number of points per batch           ...       62
Average number of grid points per atom       ...     1808
UseSFitting                                  ... on

GRIDX 3
-------
General Integration Accuracy     IntAcc      ... 4.338
Radial Grid Type                 RadialGrid  ... OptM3 with GC (2021)
Angular Grid (max. ang.)         AngularGrid ... 3 (Lebedev-194)
Angular grid pruning method      GridPruning ... 4 (adaptive)
Weight generation scheme         WeightScheme... Becke
Basis function cutoff            BFCut       ... 1.0000e-11
Integration weight cutoff        WCut        ... 1.0000e-14
Angular grids for H and He will be reduced by one unit
Partially contracted basis set               ... on
Rotationally invariant grid construction     ... off

Total number of grid points                  ...    96130
Total number of batches                      ...     1513
Average number of points per batch           ...       63
Average number of grid points per atom       ...     4005
UseSFitting                                  ... on

Time for X-Grid setup             =    1.408 sec


--------------------
CPCM SOLVATION MODEL
--------------------
CPCM parameters:
  Epsilon                                         ...      35.6880
  Refrac                                          ...       1.3442
  Rsolv                                           ...       1.3000
  Surface type                                    ... GAUSSIAN VDW
  Epsilon function type                           ...         CPCM
Solvent:                                     ... ACETONITRILE
SMD-CDS solvent descriptors:
  Soln                                       ...    1.3442
  Soln25                                     ...    1.3416
  Sola                                       ...    0.0700
  Solb                                       ...    0.3200
  Solg                                       ...   41.2500
  Solc                                       ...    0.0000
  Solh                                       ...    0.0000
Radii:
 Radius for C  used is    3.4960 Bohr (=   1.8500 Ang.)
 Radius for O  used is    4.0969 Bohr (=   2.1680 Ang.)
 Radius for F  used is    3.2692 Bohr (=   1.7300 Ang.)
Calculating surface                               ...        done! (  0.0s)
GEPOL surface points                              ...         1278
GEPOL Volume                                      ...    2149.4170
GEPOL Surface-area                                ...    1121.9463
Calculating surface distance matrix               ...        done! (  0.0s)
Performing Cholesky decomposition & store         ...        done! (  0.1s)
Overall time for CPCM initialization              ...                 0.1s
--------------
SCF ITERATIONS
--------------
ITER       Energy         Delta-E        Max-DP      RMS-DP      [F,P]     Damp
               ***  Starting incremental Fock matrix formation  ***
  0  -1852.6162955180   0.000000000000 0.03874563  0.00019993  0.1694963 0.8500
  1  -1852.7994249658  -0.183129447809 0.06089232  0.00022598  0.1124496 0.8500
                               ***Turning on DIIS***
  2  -1852.8939750139  -0.094550048130 0.04728396  0.00016640  0.0649628 0.8500
  3  -1852.9459350388  -0.051960024881 0.01938982  0.00007821  0.0345472 0.8500
  4  -1852.9850708486  -0.039135809780 0.03443598  0.00026403  0.0242414 0.0000
  5  -1853.1822046525  -0.197133803917 0.03446722  0.00011394  0.0060372 0.0000
  6  -1853.1838037510  -0.001599098528 0.01385926  0.00004571  0.0051513 0.0000
  7  -1853.1842373804  -0.000433629348 0.00230384  0.00001114  0.0019376 0.0000
  8  -1853.1842930216  -0.000055641216 0.00165688  0.00000698  0.0006499 0.0000
               *** Restarting incremental Fock matrix formation ***
                                   *** Resetting DIIS ***
  9  -1853.1843175785  -0.000024556935 0.00055071  0.00000320  0.0004809 0.0000
 10  -1853.1843212418  -0.000003663237 0.00025185  0.00000187  0.0007027 0.0000
 11  -1853.1843260459  -0.000004804111 0.00017046  0.00000127  0.0001387 0.0000
 12  -1853.1843273135  -0.000001267623 0.00009143  0.00000080  0.0001065 0.0000
 13  -1853.1843279947  -0.000000681178 0.00007626  0.00000052  0.0000787 0.0000
 14  -1853.1843282982  -0.000000303570 0.00006554  0.00000039  0.0000594 0.0000
 15  -1853.1843284570  -0.000000158791 0.00004467  0.00000028  0.0000447 0.0000
 16  -1853.1843285484  -0.000000091373 0.00003762  0.00000023  0.0000333 0.0000
 17  -1853.1843285805  -0.000000032070 0.00002530  0.00000017  0.0000245 0.0000
 18  -1853.1843286320  -0.000000051549 0.00002074  0.00000014  0.0000180 0.0000
 19  -1853.1843286405  -0.000000008428 0.00001279  0.00000010  0.0000130 0.0000
 20  -1853.1843286856  -0.000000045161 0.00000978  0.00000009  0.0000094 0.0000
 21  -1853.1843287020  -0.000000016429 0.00000734  0.00000006  0.0000068 0.0000
 22  -1853.1843286866   0.000000015489 0.00000627  0.00000005  0.0000049 0.0000
 23  -1853.1843287074  -0.000000020837 0.00000819  0.00000005  0.0000036 0.0000
 24  -1853.1843287029   0.000000004516 0.00000382  0.00000003  0.0000026 0.0000
                 **** Energy Check signals convergence ****

               *****************************************************
               *                     SUCCESS                       *
               *           SCF CONVERGED AFTER  25 CYCLES          *
               *****************************************************

Old exchange energy                            =    -39.730889436 Eh
New exchange energy                            =    -39.730903952 Eh
Exchange energy change after final integration =     -0.000014517 Eh
Total energy after final integration           =  -1853.184343218 Eh
Final COS-X integration done in                =    11.005 sec

SMD CDS free energy correction energy :                 3.61095     Kcal/mol
Total Energy after SMD CDS correction =             -1853.178588796 Eh

----------------
TOTAL SCF ENERGY
----------------

Total Energy       :        -1853.17858880 Eh          -50427.55309 eV

Components:
Nuclear Repulsion  :         2588.97865742 Eh           70449.69086 eV
Electronic Energy  :        -4442.15724621 Eh         -120877.24395 eV
One Electron Energy:        -7752.03402961 Eh         -210943.57011 eV
Two Electron Energy:         3309.87678340 Eh           90066.32616 eV
Max COSX asymmetry :            0.00000062 Eh               0.00002 eV
CPCM Dielectric    :           -0.08375413 Eh              -2.27907 eV
SMD CDS (Gcds)     :            0.00575442 Eh               0.15659 eV

Virial components:
Potential Energy   :        -3699.02016322 Eh         -100655.45587 eV
Kinetic Energy     :         1845.84157443 Eh           50227.90278 eV
Virial Ratio       :            2.00397489


DFT components:
N(Alpha)           :       95.999992180644 electrons
N(Beta)            :       94.999978757489 electrons
N(Total)           :      190.999970938133 electrons
E(X)               :     -158.392523236602 Eh       
E(C)               :       -8.363556948272 Eh       
E(XC)              :     -166.756080184874 Eh       
DFET-embed. en.    :        0.000000000000 Eh       
CPCM Solvation Model Properties:
Surface-charge          :            0.98914705
Charge-correction       :           -0.00109762 Eh              -0.02987 eV
Free-energy (cav+disp)  :            0.00575442 Eh               0.15659 eV

---------------
SCF CONVERGENCE
---------------

  Last Energy change         ...    1.5127e-09  Tolerance :   1.0000e-08
  Last MAX-Density change    ...    0.0000e+00  Tolerance :   1.0000e-07
  Last RMS-Density change    ...    0.0000e+00  Tolerance :   5.0000e-09
  Last DIIS Error            ...    1.8745e-06  Tolerance :   5.0000e-07

             **** THE GBW FILE WAS UPDATED (rf_mecn_opt_B3L_C5_D_B.gbw) ****
             **** DENSITY rf_mecn_opt_B3L_C5_D_B.scfp WAS UPDATED ****
             **** ENERGY FILE WAS UPDATED (rf_mecn_opt_B3L_C5_D_B.en.tmp) ****
----------------------
UHF SPIN CONTAMINATION
----------------------

Warning: in a DFT calculation there is little theoretical justification to 
         calculate <S**2> as in Hartree-Fock theory. We will do it anyways
         but you should keep in mind that the values have only limited relevance

Expectation value of <S**2>     :     0.753043
Ideal value S*(S+1) for S=0.5   :     0.750000
Deviation                       :     0.003043

             **** THE GBW FILE WAS UPDATED (rf_mecn_opt_B3L_C5_D_B.gbw) ****
             **** DENSITY rf_mecn_opt_B3L_C5_D_B.scfp WAS UPDATED ****
----------------
ORBITAL ENERGIES
----------------
                 SPIN UP ORBITALS
  NO   OCC          E(Eh)            E(eV) 
   0   1.0000     -24.745413      -673.3569 
   1   1.0000     -24.744244      -673.3251 
   2   1.0000     -24.743233      -673.2976 
   3   1.0000     -24.742582      -673.2799 
   4   1.0000     -24.741694      -673.2557 
   5   1.0000     -24.740270      -673.2170 
   6   1.0000     -24.739720      -673.2020 
   7   1.0000     -24.736205      -673.1064 
   8   1.0000     -24.730712      -672.9569 
   9   1.0000     -24.730705      -672.9567 
  10   1.0000     -24.723137      -672.7508 
  11   1.0000     -24.720265      -672.6726 
  12   1.0000     -24.703345      -672.2122 
  13   1.0000     -24.700448      -672.1334 
  14   1.0000     -19.085863      -519.3527 
  15   1.0000     -19.084256      -519.3090 
  16   1.0000     -10.461295      -284.6663 
  17   1.0000     -10.405789      -283.1559 
  18   1.0000     -10.405147      -283.1384 
  19   1.0000     -10.396328      -282.8985 
  20   1.0000     -10.382415      -282.5199 
  21   1.0000     -10.360712      -281.9293 
  22   1.0000     -10.338296      -281.3193 
  23   1.0000     -10.293950      -280.1126 
  24   1.0000      -1.349764       -36.7290 
  25   1.0000      -1.317639       -35.8548 
  26   1.0000      -1.307487       -35.5785 
  27   1.0000      -1.300725       -35.3945 
  28   1.0000      -1.286424       -35.0054 
  29   1.0000      -1.277477       -34.7619 
  30   1.0000      -1.263105       -34.3708 
  31   1.0000      -1.258386       -34.2424 
  32   1.0000      -1.256461       -34.1900 
  33   1.0000      -1.252350       -34.0782 
  34   1.0000      -1.246087       -33.9078 
  35   1.0000      -1.243479       -33.8368 
  36   1.0000      -1.230203       -33.4755 
  37   1.0000      -1.203505       -32.7490 
  38   1.0000      -0.959740       -26.1159 
  39   1.0000      -0.900782       -24.5115 
  40   1.0000      -0.844099       -22.9691 
  41   1.0000      -0.821993       -22.3676 
  42   1.0000      -0.793722       -21.5983 
  43   1.0000      -0.751933       -20.4611 
  44   1.0000      -0.712069       -19.3764 
  45   1.0000      -0.684043       -18.6138 
  46   1.0000      -0.662658       -18.0318 
  47   1.0000      -0.644954       -17.5501 
  48   1.0000      -0.637539       -17.3483 
  49   1.0000      -0.634735       -17.2720 
  50   1.0000      -0.617631       -16.8066 
  51   1.0000      -0.614816       -16.7300 
  52   1.0000      -0.611146       -16.6301 
  53   1.0000      -0.607045       -16.5185 
  54   1.0000      -0.602353       -16.3909 
  55   1.0000      -0.589207       -16.0331 
  56   1.0000      -0.586277       -15.9534 
  57   1.0000      -0.576065       -15.6755 
  58   1.0000      -0.569629       -15.5004 
  59   1.0000      -0.564502       -15.3609 
  60   1.0000      -0.549186       -14.9441 
  61   1.0000      -0.523604       -14.2480 
  62   1.0000      -0.513574       -13.9751 
  63   1.0000      -0.506502       -13.7826 
  64   1.0000      -0.501398       -13.6437 
  65   1.0000      -0.495918       -13.4946 
  66   1.0000      -0.494758       -13.4631 
  67   1.0000      -0.485649       -13.2152 
  68   1.0000      -0.481605       -13.1051 
  69   1.0000      -0.478630       -13.0242 
  70   1.0000      -0.476000       -12.9526 
  71   1.0000      -0.474757       -12.9188 
  72   1.0000      -0.463665       -12.6170 
  73   1.0000      -0.463574       -12.6145 
  74   1.0000      -0.460509       -12.5311 
  75   1.0000      -0.458665       -12.4809 
  76   1.0000      -0.454288       -12.3618 
  77   1.0000      -0.450830       -12.2677 
  78   1.0000      -0.448120       -12.1940 
  79   1.0000      -0.445982       -12.1358 
  80   1.0000      -0.440671       -11.9913 
  81   1.0000      -0.437834       -11.9141 
  82   1.0000      -0.435684       -11.8556 
  83   1.0000      -0.430884       -11.7249 
  84   1.0000      -0.426493       -11.6055 
  85   1.0000      -0.414313       -11.2740 
  86   1.0000      -0.412945       -11.2368 
  87   1.0000      -0.397108       -10.8059 
  88   1.0000      -0.387135       -10.5345 
  89   1.0000      -0.372795       -10.1443 
  90   1.0000      -0.347743        -9.4626 
  91   1.0000      -0.343087        -9.3359 
  92   1.0000      -0.301217        -8.1965 
  93   1.0000      -0.248638        -6.7658 
  94   1.0000      -0.244567        -6.6550 
  95   1.0000      -0.242034        -6.5861 
  96   0.0000      -0.018402        -0.5008 
  97   0.0000      -0.005432        -0.1478 
  98   0.0000       0.026130         0.7110 
  99   0.0000       0.045305         1.2328 
 100   0.0000       0.052801         1.4368 
 101   0.0000       0.087854         2.3906 
 102   0.0000       0.094964         2.5841 
 103   0.0000       0.101269         2.7557 
 104   0.0000       0.112770         3.0686 
 105   0.0000       0.120770         3.2863 
 106   0.0000       0.133917         3.6441 
 107   0.0000       0.136652         3.7185 
 108   0.0000       0.150854         4.1050 
 109   0.0000       0.156537         4.2596 
 110   0.0000       0.172906         4.7050 
 111   0.0000       0.173676         4.7260 
 112   0.0000       0.181600         4.9416 
 113   0.0000       0.197524         5.3749 
 114   0.0000       0.202085         5.4990 
 115   0.0000       0.205233         5.5847 
 116   0.0000       0.210162         5.7188 
 117   0.0000       0.212200         5.7742 
 118   0.0000       0.215078         5.8526 
 119   0.0000       0.220462         5.9991 
 120   0.0000       0.223306         6.0765 
 121   0.0000       0.227176         6.1818 
 122   0.0000       0.234192         6.3727 
 123   0.0000       0.241051         6.5593 
 124   0.0000       0.248437         6.7603 
 125   0.0000       0.251083         6.8323 
 126   0.0000       0.257532         7.0078 
 127   0.0000       0.261212         7.1079 
 128   0.0000       0.267695         7.2843 
 129   0.0000       0.276051         7.5117 
 130   0.0000       0.280664         7.6372 
 131   0.0000       0.289563         7.8794 
 132   0.0000       0.295183         8.0323 
 133   0.0000       0.296503         8.0683 
 134   0.0000       0.306340         8.3359 
 135   0.0000       0.313974         8.5437 
 136   0.0000       0.318904         8.6778 
 137   0.0000       0.322640         8.7795 
 138   0.0000       0.331722         9.0266 
 139   0.0000       0.338090         9.1999 
 140   0.0000       0.344816         9.3829 
 141   0.0000       0.352287         9.5862 
 142   0.0000       0.374243        10.1837 
 143   0.0000       0.385115        10.4795 
 144   0.0000       0.391760        10.6603 
 145   0.0000       0.408862        11.1257 
 146   0.0000       0.419118        11.4048 
 147   0.0000       0.427514        11.6332 
 148   0.0000       0.434306        11.8181 
 149   0.0000       0.436650        11.8819 
 150   0.0000       0.447647        12.1811 
 151   0.0000       0.455401        12.3921 
 152   0.0000       0.459255        12.4970 
 153   0.0000       0.465937        12.6788 
 154   0.0000       0.473146        12.8750 
 155   0.0000       0.479832        13.0569 
 156   0.0000       0.488290        13.2871 
 157   0.0000       0.494951        13.4683 
 158   0.0000       0.506034        13.7699 
 159   0.0000       0.508944        13.8491 
 160   0.0000       0.520314        14.1585 
 161   0.0000       0.526947        14.3390 
 162   0.0000       0.529973        14.4213 
 163   0.0000       0.537538        14.6271 
 164   0.0000       0.551562        15.0088 
 165   0.0000       0.566773        15.4227 
 166   0.0000       0.571385        15.5482 
 167   0.0000       0.580795        15.8042 
 168   0.0000       0.598281        16.2801 
 169   0.0000       0.615034        16.7359 
 170   0.0000       0.621548        16.9132 
 171   0.0000       0.634368        17.2620 
 172   0.0000       0.643660        17.5149 
 173   0.0000       0.650108        17.6903 
 174   0.0000       0.653966        17.7953 
 175   0.0000       0.664177        18.0732 
 176   0.0000       0.678999        18.4765 
 177   0.0000       0.684269        18.6199 
 178   0.0000       0.689682        18.7672 
 179   0.0000       0.701375        19.0854 
 180   0.0000       0.709535        19.3074 
 181   0.0000       0.718995        19.5649 
 182   0.0000       0.724888        19.7252 
 183   0.0000       0.726698        19.7744 
 184   0.0000       0.730539        19.8790 
 185   0.0000       0.737551        20.0698 
 186   0.0000       0.752765        20.4838 
 187   0.0000       0.759082        20.6557 
 188   0.0000       0.764158        20.7938 
 189   0.0000       0.767517        20.8852 
 190   0.0000       0.778207        21.1761 
 191   0.0000       0.781829        21.2746 
 192   0.0000       0.785534        21.3755 
 193   0.0000       0.787625        21.4324 
 194   0.0000       0.802155        21.8277 
 195   0.0000       0.811372        22.0786 
 196   0.0000       0.823302        22.4032 
 197   0.0000       0.832734        22.6599 
 198   0.0000       0.840221        22.8636 
 199   0.0000       0.851121        23.1602 
 200   0.0000       0.856645        23.3105 
 201   0.0000       0.860241        23.4084 
 202   0.0000       0.868685        23.6381 
 203   0.0000       0.883263        24.0348 
 204   0.0000       0.890894        24.2425 
 205   0.0000       0.901012        24.5178 
 206   0.0000       0.902097        24.5473 
 207   0.0000       0.911568        24.8050 
 208   0.0000       0.920252        25.0413 
 209   0.0000       0.933220        25.3942 
 210   0.0000       0.939452        25.5638 
 211   0.0000       0.944776        25.7087 
 212   0.0000       0.960018        26.1234 
 213   0.0000       0.966827        26.3087 
 214   0.0000       0.976909        26.5830 
 215   0.0000       0.983971        26.7752 
 216   0.0000       0.987348        26.8671 
 217   0.0000       1.014588        27.6083 
 218   0.0000       1.015631        27.6367 
 219   0.0000       1.023476        27.8502 
 220   0.0000       1.026451        27.9311 
 221   0.0000       1.044203        28.4142 
 222   0.0000       1.064096        28.9555 
 223   0.0000       1.078418        29.3452 
 224   0.0000       1.090068        29.6623 
 225   0.0000       1.097739        29.8710 
 226   0.0000       1.104092        30.0439 
 227   0.0000       1.114989        30.3404 
 228   0.0000       1.122697        30.5501 
 229   0.0000       1.124656        30.6034 
 230   0.0000       1.132645        30.8208 
 231   0.0000       1.140212        31.0268 
 232   0.0000       1.152113        31.3506 
 233   0.0000       1.157211        31.4893 
 234   0.0000       1.168292        31.7908 
 235   0.0000       1.175933        31.9988 
 236   0.0000       1.182464        32.1765 
 237   0.0000       1.196486        32.5580 
 238   0.0000       1.207717        32.8637 
 239   0.0000       1.227603        33.4048 
 240   0.0000       1.235823        33.6285 
 241   0.0000       1.236901        33.6578 
 242   0.0000       1.250540        34.0289 
 243   0.0000       1.266804        34.4715 
 244   0.0000       1.274640        34.6847 
 245   0.0000       1.281520        34.8719 
 246   0.0000       1.285580        34.9824 
 247   0.0000       1.298085        35.3227 
 248   0.0000       1.322881        35.9974 
 249   0.0000       1.335789        36.3487 
 250   0.0000       1.337183        36.3866 
 251   0.0000       1.363014        37.0895 
 252   0.0000       1.378120        37.5006 
 253   0.0000       1.406736        38.2792 
 254   0.0000       1.419010        38.6132 
 255   0.0000       1.444860        39.3166 
 256   0.0000       1.458261        39.6813 
 257   0.0000       1.471049        40.0293 
 258   0.0000       1.477472        40.2041 
 259   0.0000       1.522519        41.4299 
 260   0.0000       1.536647        41.8143 
 261   0.0000       1.553673        42.2776 
 262   0.0000       1.568678        42.6859 
 263   0.0000       1.597837        43.4794 
 264   0.0000       1.611073        43.8395 
 265   0.0000       1.629466        44.3400 
 266   0.0000       1.639672        44.6178 
 267   0.0000       1.666160        45.3385 
 268   0.0000       1.677325        45.6423 
 269   0.0000       1.697298        46.1858 
 270   0.0000       1.700430        46.2710 
 271   0.0000       1.728513        47.0352 
 272   0.0000       1.748094        47.5681 
 273   0.0000       1.765870        48.0518 
 274   0.0000       1.779788        48.4305 
 275   0.0000       1.791992        48.7626 
 276   0.0000       1.800194        48.9858 
 277   0.0000       1.814063        49.3632 
 278   0.0000       1.822919        49.6042 
 279   0.0000       1.842946        50.1491 
 280   0.0000       1.858685        50.5774 
 281   0.0000       1.861584        50.6563 
 282   0.0000       1.873756        50.9875 
 283   0.0000       1.892910        51.5087 
 284   0.0000       1.901934        51.7542 
 285   0.0000       1.905124        51.8411 
 286   0.0000       1.915622        52.1267 
 287   0.0000       1.918028        52.1922 
 288   0.0000       1.925423        52.3934 
 289   0.0000       1.928499        52.4771 
 290   0.0000       1.934824        52.6492 
 291   0.0000       1.937817        52.7307 
 292   0.0000       1.949407        53.0461 
 293   0.0000       1.960295        53.3423 
 294   0.0000       1.972143        53.6648 
 295   0.0000       1.995438        54.2986 
 296   0.0000       2.001492        54.4634 
 297   0.0000       2.010401        54.7058 
 298   0.0000       2.030510        55.2530 
 299   0.0000       2.038505        55.4705 
 300   0.0000       2.048721        55.7485 
 301   0.0000       2.051851        55.8337 
 302   0.0000       2.055682        55.9380 
 303   0.0000       2.070763        56.3483 
 304   0.0000       2.076527        56.5052 
 305   0.0000       2.079859        56.5958 
 306   0.0000       2.082764        56.6749 
 307   0.0000       2.091050        56.9004 
 308   0.0000       2.096162        57.0395 
 309   0.0000       2.096794        57.0567 
 310   0.0000       2.107940        57.3600 
 311   0.0000       2.127165        57.8831 
 312   0.0000       2.128768        57.9267 
 313   0.0000       2.134726        58.0889 
 314   0.0000       2.141288        58.2674 
 315   0.0000       2.148112        58.4531 
 316   0.0000       2.165556        58.9278 
 317   0.0000       2.171623        59.0929 
 318   0.0000       2.182030        59.3761 
 319   0.0000       2.188469        59.5513 
 320   0.0000       2.192442        59.6594 
 321   0.0000       2.223569        60.5064 
 322   0.0000       2.240585        60.9694 
 323   0.0000       2.254457        61.3469 
 324   0.0000       2.268799        61.7372 
 325   0.0000       2.272023        61.8249 
 326   0.0000       2.278753        62.0080 
 327   0.0000       2.293768        62.4166 
 328   0.0000       2.303948        62.6936 
 329   0.0000       2.338946        63.6459 
 330   0.0000       2.340140        63.6784 
 331   0.0000       2.353157        64.0326 
 332   0.0000       2.360748        64.2392 
 333   0.0000       2.375579        64.6428 
 334   0.0000       2.384299        64.8801 
 335   0.0000       2.404089        65.4186 
 336   0.0000       2.409848        65.5753 
 337   0.0000       2.419174        65.8291 
 338   0.0000       2.432975        66.2046 
 339   0.0000       2.443237        66.4838 
 340   0.0000       2.451158        66.6994 
 341   0.0000       2.458417        66.8969 
 342   0.0000       2.459158        66.9171 
 343   0.0000       2.464642        67.0663 
 344   0.0000       2.472133        67.2701 
 345   0.0000       2.476814        67.3975 
 346   0.0000       2.483574        67.5815 
 347   0.0000       2.485329        67.6292 
 348   0.0000       2.504493        68.1507 
 349   0.0000       2.521762        68.6206 
 350   0.0000       2.525844        68.7317 
 351   0.0000       2.548439        69.3466 
 352   0.0000       2.560403        69.6721 
 353   0.0000       2.573855        70.0382 
 354   0.0000       2.593824        70.5815 
 355   0.0000       2.608693        70.9862 
 356   0.0000       2.618704        71.2586 
 357   0.0000       2.621478        71.3340 
 358   0.0000       2.634921        71.6998 
 359   0.0000       2.643554        71.9348 
 360   0.0000       2.671080        72.6838 
 361   0.0000       2.685175        73.0673 
 362   0.0000       2.722778        74.0906 
 363   0.0000       2.751537        74.8731 
 364   0.0000       2.761315        75.1392 
 365   0.0000       2.779260        75.6275 
 366   0.0000       2.809555        76.4519 
 367   0.0000       2.825083        76.8744 
 368   0.0000       2.845559        77.4316 
 369   0.0000       2.858951        77.7960 
 370   0.0000       2.864943        77.9591 
 371   0.0000       2.889821        78.6360 
 372   0.0000       2.894658        78.7676 
 373   0.0000       2.904781        79.0431 
 374   0.0000       2.912668        79.2577 
 375   0.0000       2.926407        79.6316 
 376   0.0000       2.930114        79.7325 
 377   0.0000       2.942571        80.0714 
 378   0.0000       2.956322        80.4456 
 379   0.0000       2.968431        80.7751 
 380   0.0000       2.971085        80.8473 
 381   0.0000       2.982119        81.1476 
 382   0.0000       2.989905        81.3594 
 383   0.0000       2.996147        81.5293 
 384   0.0000       3.011984        81.9602 
 385   0.0000       3.019565        82.1665 
 386   0.0000       3.022974        82.2593 
 387   0.0000       3.034621        82.5762 
 388   0.0000       3.046349        82.8954 
 389   0.0000       3.053377        83.0866 
 390   0.0000       3.056560        83.1732 
 391   0.0000       3.067764        83.4781 
 392   0.0000       3.074520        83.6619 
 393   0.0000       3.078471        83.7695 
 394   0.0000       3.080981        83.8378 
 395   0.0000       3.090622        84.1001 
 396   0.0000       3.099853        84.3513 
 397   0.0000       3.103732        84.4568 
 398   0.0000       3.120411        84.9107 
 399   0.0000       3.127454        85.1024 
 400   0.0000       3.130728        85.1914 
 401   0.0000       3.133713        85.2727 
 402   0.0000       3.143480        85.5384 
 403   0.0000       3.147007        85.6344 
 404   0.0000       3.154000        85.8247 
 405   0.0000       3.158513        85.9475 
 406   0.0000       3.164065        86.0986 
 407   0.0000       3.176339        86.4326 
 408   0.0000       3.187636        86.7400 
 409   0.0000       3.189406        86.7881 
 410   0.0000       3.199844        87.0722 
 411   0.0000       3.214384        87.4678 
 412   0.0000       3.217280        87.5466 
 413   0.0000       3.231573        87.9356 
 414   0.0000       3.234413        88.0128 
 415   0.0000       3.238588        88.1265 
 416   0.0000       3.245290        88.3088 
 417   0.0000       3.254914        88.5707 
 418   0.0000       3.263877        88.8146 
 419   0.0000       3.274199        89.0955 
 420   0.0000       3.283323        89.3438 
 421   0.0000       3.286995        89.4437 
 422   0.0000       3.300592        89.8137 
 423   0.0000       3.309770        90.0634 
 424   0.0000       3.314940        90.2041 
 425   0.0000       3.324578        90.4664 
 426   0.0000       3.338247        90.8383 
 427   0.0000       3.355930        91.3195 
 428   0.0000       3.366180        91.5984 
 429   0.0000       3.372123        91.7601 
 430   0.0000       3.388799        92.2139 
 431   0.0000       3.398482        92.4774 
 432   0.0000       3.419108        93.0387 
 433   0.0000       3.421265        93.0973 
 434   0.0000       3.429746        93.3281 
 435   0.0000       3.449407        93.8631 
 436   0.0000       3.478973        94.6677 
 437   0.0000       3.490885        94.9918 
 438   0.0000       3.506788        95.4246 
 439   0.0000       3.532876        96.1344 
 440   0.0000       3.537533        96.2612 
 441   0.0000       3.560033        96.8734 
 442   0.0000       3.568952        97.1161 
 443   0.0000       3.585585        97.5687 
 444   0.0000       3.600396        97.9718 
 445   0.0000       3.621479        98.5454 
 446   0.0000       3.635991        98.9403 
 447   0.0000       3.643427        99.1427 
 448   0.0000       3.672664        99.9383 
 449   0.0000       3.690904       100.4346 
 450   0.0000       3.697806       100.6224 
 451   0.0000       3.719832       101.2218 
 452   0.0000       3.733508       101.5939 
 453   0.0000       3.741677       101.8162 
 454   0.0000       3.757314       102.2417 
 455   0.0000       3.766180       102.4830 
 456   0.0000       3.781711       102.9056 
 457   0.0000       3.802092       103.4602 
 458   0.0000       3.814479       103.7972 
 459   0.0000       3.822508       104.0157 
 460   0.0000       3.832610       104.2906 
 461   0.0000       3.844578       104.6163 
 462   0.0000       3.857622       104.9712 
 463   0.0000       3.873707       105.4089 
 464   0.0000       3.882517       105.6487 
 465   0.0000       3.885365       105.7262 
 466   0.0000       3.896398       106.0264 
 467   0.0000       3.904781       106.2545 
 468   0.0000       3.912153       106.4551 
 469   0.0000       3.922077       106.7251 
 470   0.0000       3.936689       107.1227 
 471   0.0000       3.948739       107.4507 
 472   0.0000       3.965637       107.9105 
 473   0.0000       3.975967       108.1916 
 474   0.0000       3.977701       108.2387 
 475   0.0000       3.988610       108.5356 
 476   0.0000       3.999106       108.8212 
 477   0.0000       4.007839       109.0588 
 478   0.0000       4.020912       109.4146 
 479   0.0000       4.029799       109.6564 
 480   0.0000       4.035400       109.8088 
 481   0.0000       4.049658       110.1968 
 482   0.0000       4.053520       110.3019 
 483   0.0000       4.077226       110.9470 
 484   0.0000       4.084770       111.1522 
 485   0.0000       4.093911       111.4010 
 486   0.0000       4.105244       111.7094 
 487   0.0000       4.108326       111.7932 
 488   0.0000       4.112007       111.8934 
 489   0.0000       4.124764       112.2405 
 490   0.0000       4.140566       112.6705 
 491   0.0000       4.148025       112.8735 
 492   0.0000       4.153462       113.0214 
 493   0.0000       4.164498       113.3217 
 494   0.0000       4.171614       113.5154 
 495   0.0000       4.189688       114.0072 
 496   0.0000       4.199565       114.2760 
 497   0.0000       4.227139       115.0263 
 498   0.0000       4.232719       115.1781 
 499   0.0000       4.264339       116.0386 
 500   0.0000       4.277985       116.4099 
 501   0.0000       4.298773       116.9756 
 502   0.0000       4.311831       117.3309 
 503   0.0000       4.360978       118.6682 
 504   0.0000       4.391193       119.4904 
 505   0.0000       4.553361       123.9033 
 506   0.0000       4.576837       124.5421 
 507   0.0000       4.611576       125.4874 
 508   0.0000       4.661972       126.8587 
 509   0.0000       4.739662       128.9728 
 510   0.0000       4.758636       129.4891 
 511   0.0000       4.804790       130.7450 
 512   0.0000       4.925985       134.0429 
 513   0.0000       4.955926       134.8576 
 514   0.0000       4.993820       135.8887 
 515   0.0000       5.129850       139.5903 
 516   0.0000       5.154505       140.2612 
 517   0.0000       5.187504       141.1591 
 518   0.0000       5.195674       141.3815 
 519   0.0000       5.206554       141.6775 
 520   0.0000       5.207741       141.7099 
 521   0.0000       5.213249       141.8597 
 522   0.0000       5.222204       142.1034 
 523   0.0000       5.262431       143.1980 
 524   0.0000       5.293787       144.0513 
 525   0.0000       5.315376       144.6387 
 526   0.0000       5.321134       144.7954 
 527   0.0000       5.334746       145.1658 
 528   0.0000       5.337446       145.2393 
 529   0.0000       5.375597       146.2774 
 530   0.0000       5.415856       147.3729 
 531   0.0000       5.447847       148.2435 
 532   0.0000       5.489353       149.3729 
 533   0.0000       5.509498       149.9211 
 534   0.0000       5.533723       150.5803 
 535   0.0000       5.617284       152.8541 
 536   0.0000       5.710491       155.3904 
 537   0.0000       5.744268       156.3095 
 538   0.0000       5.851336       159.2230 
 539   0.0000       5.917818       161.0320 
 540   0.0000       6.165131       167.7617 
 541   0.0000       6.229300       169.5079 
 542   0.0000       6.339606       172.5094 
 543   0.0000       6.381667       173.6540 
 544   0.0000       6.415107       174.5639 
 545   0.0000       6.444354       175.3598 
 546   0.0000       6.728781       183.0994 
 547   0.0000       6.763132       184.0342 
 548   0.0000       6.781462       184.5330 
 549   0.0000       6.800611       185.0540 
 550   0.0000       6.804305       185.1545 
 551   0.0000       6.805190       185.1786 
 552   0.0000       6.806496       185.2142 
 553   0.0000       6.808545       185.2699 
 554   0.0000       6.809590       185.2984 
 555   0.0000       6.811787       185.3582 
 556   0.0000       6.812511       185.3778 
 557   0.0000       6.813691       185.4099 
 558   0.0000       6.814194       185.4237 
 559   0.0000       6.815317       185.4542 
 560   0.0000       6.819193       185.5597 
 561   0.0000       6.819545       185.5692 
 562   0.0000       6.820617       185.5984 
 563   0.0000       6.821424       185.6204 
 564   0.0000       6.823205       185.6689 
 565   0.0000       6.825075       185.7197 
 566   0.0000       6.826540       185.7596 
 567   0.0000       6.829848       185.8496 
 568   0.0000       6.830595       185.8699 
 569   0.0000       6.831727       185.9007 
 570   0.0000       6.832922       185.9332 
 571   0.0000       6.835154       185.9940 
 572   0.0000       6.836158       186.0213 
 573   0.0000       6.838247       186.0782 
 574   0.0000       6.839266       186.1059 
 575   0.0000       6.841940       186.1786 
 576   0.0000       6.842628       186.1974 
 577   0.0000       6.844511       186.2486 
 578   0.0000       6.847352       186.3259 
 579   0.0000       6.851100       186.4279 
 580   0.0000       6.851561       186.4405 
 581   0.0000       6.855042       186.5352 
 582   0.0000       6.856695       186.5802 
 583   0.0000       6.860364       186.6800 
 584   0.0000       6.864122       186.7822 
 585   0.0000       6.865152       186.8103 
 586   0.0000       6.866964       186.8596 
 587   0.0000       6.869588       186.9310 
 588   0.0000       6.881950       187.2674 
 589   0.0000       6.891738       187.5337 
 590   0.0000       6.904753       187.8879 
 591   0.0000       6.918286       188.2561 
 592   0.0000       6.919500       188.2892 
 593   0.0000       6.927984       188.5200 
 594   0.0000       6.942605       188.9179 
 595   0.0000       6.945327       188.9920 
 596   0.0000       6.954975       189.2545 
 597   0.0000       6.957429       189.3213 
 598   0.0000       6.959090       189.3665 
 599   0.0000       6.961399       189.4293 
 600   0.0000       6.965056       189.5288 
[...]
      dxy     :    -0.000001
      f0      :     0.000001  f :     0.000003
      f+1     :     0.000001
      f-1     :     0.000000
      f+2     :     0.000001
      f-2     :    -0.000000
      f+3     :     0.000000
      f-3     :     0.000001
  2 O s       :     0.000012  s :     0.000012
      pz      :     0.000651  p :     0.000725
      px      :    -0.000187
      py      :     0.000261
      dz2     :     0.000001  d :     0.000007
      dxz     :    -0.000001
      dyz     :     0.000011
      dx2y2   :    -0.000001
      dxy     :    -0.000002
      f0      :     0.000000  f :     0.000001
      f+1     :    -0.000000
      f-1     :     0.000000
      f+2     :     0.000001
      f-2     :     0.000000
      f+3     :     0.000000
      f-3     :    -0.000000
  3 C s       :     0.000049  s :     0.000049
      pz      :    -0.000082  p :     0.003721
      px      :     0.003745
      py      :     0.000057
      dz2     :    -0.000027  d :     0.001057
      dxz     :     0.000520
      dyz     :     0.000002
      dx2y2   :     0.000238
      dxy     :     0.000324
      f0      :     0.000009  f :     0.000116
      f+1     :    -0.000001
      f-1     :     0.000008
      f+2     :     0.000007
      f-2     :     0.000036
      f+3     :     0.000013
      f-3     :     0.000044
  4 C s       :     0.001940  s :     0.001940
      pz      :     0.003852  p :     0.016054
      px      :     0.008419
      py      :     0.003783
      dz2     :     0.000516  d :     0.002050
      dxz     :    -0.000341
      dyz     :     0.000160
      dx2y2   :     0.001779
      dxy     :    -0.000065
      f0      :    -0.000007  f :    -0.000074
      f+1     :    -0.000007
      f-1     :    -0.000015
      f+2     :    -0.000052
      f-2     :    -0.000011
      f+3     :     0.000046
      f-3     :    -0.000027
  5 C s       :    -0.001564  s :    -0.001564
      pz      :     0.001885  p :    -0.008278
      px      :    -0.011060
      py      :     0.000897
      dz2     :     0.001566  d :     0.058641
      dxz     :     0.027094
      dyz     :     0.001061
      dx2y2   :     0.015122
      dxy     :     0.013798
      f0      :     0.002395  f :     0.008435
      f+1     :     0.000177
      f-1     :     0.000205
      f+2     :     0.000478
      f-2     :     0.001218
      f+3     :     0.003346
      f-3     :     0.000616
  6 C s       :     0.023330  s :     0.023330
      pz      :     0.308829  p :     0.629055
      px      :     0.034684
      py      :     0.285543
      dz2     :     0.005877  d :     0.003885
      dxz     :    -0.000619
      dyz     :     0.000662
      dx2y2   :    -0.001255
      dxy     :    -0.000781
      f0      :     0.000375  f :     0.000974
      f+1     :    -0.000202
      f-1     :     0.000870
      f+2     :     0.000419
      f-2     :    -0.000308
      f+3     :    -0.000157
      f-3     :    -0.000023
  7 C s       :    -0.002723  s :    -0.002723
      pz      :     0.008410  p :     0.006031
      px      :    -0.007369
      py      :     0.004991
      dz2     :     0.015781  d :     0.049951
      dxz     :     0.009375
      dyz     :     0.000435
      dx2y2   :     0.003498
      dxy     :     0.020863
      f0      :     0.000132  f :     0.010664
      f+1     :     0.005231
      f-1     :     0.000715
      f+2     :     0.001973
      f-2     :     0.000427
      f+3     :     0.000283
      f-3     :     0.001901
  8 C s       :     0.000172  s :     0.000172
      pz      :     0.000114  p :     0.001553
      px      :     0.000927
      py      :     0.000511
      dz2     :    -0.000028  d :    -0.000570
      dxz     :    -0.000242
      dyz     :    -0.000036
      dx2y2   :    -0.000217
      dxy     :    -0.000047
      f0      :     0.000045  f :     0.000108
      f+1     :     0.000013
      f-1     :    -0.000000
      f+2     :     0.000005
      f-2     :     0.000022
      f+3     :     0.000037
      f-3     :    -0.000014
  9 C s       :    -0.000065  s :    -0.000065
      pz      :    -0.000025  p :    -0.000049
      px      :    -0.000055
      py      :     0.000032
      dz2     :    -0.000006  d :     0.000015
      dxz     :     0.000009
      dyz     :     0.000001
      dx2y2   :     0.000023
      dxy     :    -0.000013
      f0      :    -0.000003  f :     0.000011
      f+1     :     0.000000
      f-1     :     0.000001
      f+2     :     0.000002
      f-2     :     0.000005
      f+3     :     0.000004
      f-3     :     0.000001
 10 F s       :     0.000019  s :     0.000019
      pz      :    -0.000026  p :    -0.000101
      px      :    -0.000047
      py      :    -0.000028
      dz2     :     0.000003  d :     0.000032
      dxz     :    -0.000000
      dyz     :    -0.000001
      dx2y2   :     0.000004
      dxy     :     0.000026
      f0      :     0.000000  f :     0.000002
      f+1     :     0.000000
      f-1     :     0.000000
      f+2     :     0.000000
      f-2     :     0.000000
      f+3     :     0.000002
      f-3     :     0.000000
 11 F s       :     0.000013  s :     0.000013
      pz      :    -0.000029  p :     0.000333
      px      :     0.000210
      py      :     0.000151
      dz2     :     0.000009  d :     0.000051
      dxz     :     0.000038
      dyz     :     0.000005
      dx2y2   :     0.000001
      dxy     :    -0.000001
      f0      :     0.000001  f :     0.000003
      f+1     :     0.000001
      f-1     :     0.000000
      f+2     :     0.000001
      f-2     :     0.000000
      f+3     :    -0.000000
      f-3     :    -0.000000
 12 F s       :     0.000171  s :     0.000171
      pz      :     0.000843  p :     0.000835
      px      :     0.000399
      py      :    -0.000407
      dz2     :     0.000002  d :     0.000189
      dxz     :     0.000003
      dyz     :     0.000032
      dx2y2   :     0.000142
      dxy     :     0.000009
      f0      :     0.000001  f :     0.000012
      f+1     :    -0.000000
      f-1     :     0.000001
      f+2     :     0.000000
      f-2     :     0.000001
      f+3     :     0.000003
      f-3     :     0.000006
 13 F s       :     0.000109  s :     0.000109
      pz      :    -0.000525  p :     0.000573
      px      :     0.000123
      py      :     0.000975
      dz2     :     0.000082  d :     0.000173
      dxz     :     0.000011
      dyz     :     0.000036
      dx2y2   :     0.000044
      dxy     :     0.000001
      f0      :     0.000005  f :     0.000011
      f+1     :     0.000001
      f-1     :     0.000001
      f+2     :     0.000002
      f-2     :     0.000000
      f+3     :     0.000000
      f-3     :     0.000000
 14 F s       :     0.000628  s :     0.000628
      pz      :     0.004194  p :     0.005746
      px      :    -0.000438
      py      :     0.001990
      dz2     :    -0.000018  d :    -0.000190
      dxz     :     0.000009
      dyz     :     0.000019
      dx2y2   :    -0.000046
      dxy     :    -0.000154
      f0      :     0.000001  f :    -0.000010
      f+1     :     0.000000
      f-1     :    -0.000002
      f+2     :    -0.000000
      f-2     :    -0.000001
      f+3     :    -0.000006
      f-3     :    -0.000001
 15 F s       :     0.001231  s :     0.001231
      pz      :     0.007051  p :     0.014199
      px      :     0.007390
      py      :    -0.000243
      dz2     :    -0.000044  d :    -0.000070
      dxz     :    -0.000050
      dyz     :    -0.000015
      dx2y2   :     0.000055
      dxy     :    -0.000015
      f0      :    -0.000005  f :    -0.000005
      f+1     :    -0.000001
      f-1     :     0.000000
      f+2     :     0.000001
      f-2     :    -0.000001
      f+3     :     0.000001
      f-3     :    -0.000000
 16 F s       :     0.002114  s :     0.002114
      pz      :     0.048351  p :     0.099207
      px      :     0.005851
      py      :     0.045005
      dz2     :     0.006584  d :     0.010316
      dxz     :     0.000552
      dyz     :     0.000487
      dx2y2   :     0.002590
      dxy     :     0.000104
      f0      :     0.000184  f :     0.000549
      f+1     :     0.000028
      f-1     :     0.000192
      f+2     :     0.000052
      f-2     :     0.000019
      f+3     :     0.000002
      f-3     :     0.000073
 17 F s       :     0.002384  s :     0.002384
      pz      :     0.001619  p :     0.032791
      px      :     0.013123
      py      :     0.018049
      dz2     :     0.000126  d :     0.000233
      dxz     :     0.000002
      dyz     :    -0.000057
      dx2y2   :    -0.000011
      dxy     :     0.000172
      f0      :    -0.000001  f :     0.000007
      f+1     :     0.000000
      f-1     :     0.000007
      f+2     :    -0.000004
      f-2     :    -0.000001
      f+3     :     0.000008
      f-3     :    -0.000002
 18 F s       :     0.000771  s :     0.000771
      pz      :     0.003572  p :     0.014748
      px      :     0.001851
      py      :     0.009325
      dz2     :    -0.000088  d :    -0.000031
      dxz     :    -0.000093
      dyz     :     0.000130
      dx2y2   :    -0.000003
      dxy     :     0.000022
      f0      :    -0.000005  f :    -0.000006
      f+1     :    -0.000005
      f-1     :     0.000003
      f+2     :     0.000002
      f-2     :    -0.000001
      f+3     :    -0.000000
      f-3     :    -0.000000
 19 F s       :     0.000180  s :     0.000180
      pz      :    -0.000031  p :     0.001284
      px      :     0.000880
      py      :     0.000434
      dz2     :     0.000017  d :     0.000040
      dxz     :    -0.000002
      dyz     :     0.000001
      dx2y2   :     0.000022
      dxy     :     0.000002
      f0      :     0.000000  f :     0.000001
      f+1     :     0.000000
      f-1     :     0.000000
      f+2     :     0.000000
      f-2     :    -0.000000
      f+3     :    -0.000000
      f-3     :     0.000001
 20 F s       :     0.000042  s :     0.000042
      pz      :     0.000008  p :     0.001375
      px      :     0.000665
      py      :     0.000702
      dz2     :     0.000004  d :     0.000043
      dxz     :     0.000022
      dyz     :     0.000010
      dx2y2   :     0.000003
      dxy     :     0.000005
      f0      :     0.000001  f :     0.000002
      f+1     :     0.000000
      f-1     :     0.000000
      f+2     :     0.000000
      f-2     :     0.000000
      f+3     :    -0.000000
      f-3     :     0.000000
 21 F s       :     0.000009  s :     0.000009
      pz      :     0.000008  p :     0.000077
      px      :     0.000056
      py      :     0.000013
      dz2     :    -0.000000  d :     0.000001
      dxz     :     0.000000
      dyz     :     0.000001
      dx2y2   :     0.000000
      dxy     :    -0.000000
      f0      :    -0.000000  f :    -0.000000
      f+1     :    -0.000000
      f-1     :    -0.000000
      f+2     :     0.000000
      f-2     :     0.000000
      f+3     :    -0.000000
      f-3     :     0.000000
 22 F s       :    -0.000000  s :    -0.000000
      pz      :    -0.000013  p :     0.000024
      px      :     0.000034
      py      :     0.000002
      dz2     :    -0.000000  d :    -0.000000
      dxz     :    -0.000000
      dyz     :    -0.000000
      dx2y2   :     0.000001
      dxy     :    -0.000000
      f0      :    -0.000000  f :    -0.000000
      f+1     :     0.000000
      f-1     :    -0.000000
      f+2     :     0.000000
      f-2     :    -0.000000
      f+3     :     0.000000
      f-3     :    -0.000000
 23 F s       :    -0.000002  s :    -0.000002
      pz      :     0.000000  p :     0.000021
      px      :     0.000014
      py      :     0.000007
      dz2     :    -0.000001  d :    -0.000000
      dxz     :    -0.000001
      dyz     :    -0.000000
      dx2y2   :     0.000000
      dxy     :     0.000001
      f0      :    -0.000000  f :    -0.000000
      f+1     :    -0.000000
      f-1     :     0.000000
      f+2     :     0.000000
      f-2     :     0.000000
      f+3     :    -0.000000
      f-3     :     0.000000


                      *****************************
                      * MAYER POPULATION ANALYSIS *
                      *****************************

  NA   - Mulliken gross atomic population
  ZA   - Total nuclear charge
  QA   - Mulliken gross atomic charge
  VA   - Mayer's total valence
  BVA  - Mayer's bonded valence
  FA   - Mayer's free valence

  ATOM       NA         ZA         QA         VA         BVA        FA
  0 C      5.8533     6.0000     0.1467     4.6726     4.6726     0.0000
  1 O      8.4727     8.0000    -0.4727     1.9785     1.9785     0.0000
  2 O      8.4876     8.0000    -0.4876     1.9597     1.9597     0.0000
  3 C      5.6642     6.0000     0.3358     3.8782     3.8782     0.0000
  4 C      5.6880     6.0000     0.3120     4.0141     4.0136     0.0006
  5 C      5.6244     6.0000     0.3756     4.2288     4.2262     0.0026
  6 C      5.8634     6.0000     0.1366     3.8630     3.2835     0.5795
  7 C      5.6656     6.0000     0.3344     4.1356     4.1325     0.0032
  8 C      5.6674     6.0000     0.3326     4.1410     4.1410     0.0000
  9 C      5.5248     6.0000     0.4752     4.5215     4.5214     0.0000
 10 F      9.2122     9.0000    -0.2122     1.0752     1.0752     0.0000
 11 F      9.2199     9.0000    -0.2199     1.0591     1.0591     0.0000
 12 F      9.1899     9.0000    -0.1899     1.1181     1.1181     0.0000
 13 F      9.1972     9.0000    -0.1972     1.1134     1.1134     0.0000
 14 F      9.1800     9.0000    -0.1800     1.1252     1.1251     0.0001
 15 F      9.1827     9.0000    -0.1827     1.1242     1.1240     0.0003
 16 F      9.1455     9.0000    -0.1455     1.1919     1.1802     0.0117
 17 F      9.1835     9.0000    -0.1835     1.1201     1.1189     0.0012
 18 F      9.1782     9.0000    -0.1782     1.1295     1.1293     0.0002
 19 F      9.1688     9.0000    -0.1688     1.1485     1.1485     0.0000
 20 F      9.1676     9.0000    -0.1676     1.1473     1.1473     0.0000
 21 F      9.1547     9.0000    -0.1547     1.1635     1.1635     0.0000
 22 F      9.1547     9.0000    -0.1547     1.1640     1.1640     0.0000
 23 F      9.1536     9.0000    -0.1536     1.1645     1.1645     0.0000

  Mayer bond orders larger than 0.100000
B(  0-C ,  1-O ) :   1.8948 B(  0-C ,  2-O ) :   1.8720 B(  0-C ,  3-C ) :   0.8495 
B(  3-C ,  4-C ) :   0.9172 B(  3-C , 10-F ) :   1.0441 B(  3-C , 11-F ) :   1.0301 
B(  4-C ,  5-C ) :   0.9171 B(  4-C , 12-F ) :   1.0599 B(  4-C , 13-F ) :   1.0546 
B(  5-C ,  6-C ) :   1.0302 B(  5-C , 14-F ) :   1.0782 B(  5-C , 15-F ) :   1.0709 
B(  6-C ,  7-C ) :   1.0257 B(  6-C , 16-F ) :   1.1147 B(  7-C ,  8-C ) :   0.9200 
B(  7-C , 17-F ) :   1.0599 B(  7-C , 18-F ) :   1.0680 B(  8-C ,  9-C ) :   0.9681 
B(  8-C , 19-F ) :   1.0870 B(  8-C , 20-F ) :   1.0833 B(  9-C , 21-F ) :   1.1513 
B(  9-C , 22-F ) :   1.1451 B(  9-C , 23-F ) :   1.1564 

-------
TIMINGS
-------

Total SCF time: 0 days 0 hours 1 min 30 sec 

Total time                  ....      90.001 sec
Sum of individual times     ....      87.214 sec  ( 96.9%)

Fock matrix formation       ....      76.443 sec  ( 84.9%)
  Split-RI-J                ....       5.349 sec  (  7.0% of F)
  Chain of spheres X        ....      53.007 sec  ( 69.3% of F)
  XC integration            ....      10.543 sec  ( 13.8% of F)
    Basis function eval.    ....       0.998 sec  (  9.5% of XC)
    Density eval.           ....       3.115 sec  ( 29.5% of XC)
    XC-Functional eval.     ....       0.430 sec  (  4.1% of XC)
    XC-Potential eval.      ....       1.893 sec  ( 18.0% of XC)
Diagonalization             ....       5.090 sec  (  5.7%)
Density matrix formation    ....       0.178 sec  (  0.2%)
Population analysis         ....       0.304 sec  (  0.3%)
Initial guess               ....       0.554 sec  (  0.6%)
Orbital Transformation      ....       0.000 sec  (  0.0%)
Orbital Orthonormalization  ....       0.475 sec  (  0.5%)
DIIS solution               ....       2.243 sec  (  2.5%)
Grid generation             ....       2.404 sec  (  2.7%)

Maximum memory used throughout the entire SCF-calculation: 160.3 MB


-------------------------------------------------------------------------------
                          DFT DISPERSION CORRECTION                            
                                                                               
                              DFTD3 V3.1  Rev 1                                
                          USING Becke-Johnson damping                          
-------------------------------------------------------------------------------
The B3LYP functional is recognized
Active option DFTDOPT                   ...         4   

molecular C6(AA) [au] = 6299.628066 


            DFT-D V3
 parameters
 s6 scaling factor         :     1.0000 
 a1 scaling factor         :     0.3981 
 s8 scaling factor         :     1.9889 
 a2 scaling factor         :     4.4211 
 ad hoc parameters k1-k3   :    16.0000     1.3333    -4.0000 

 Edisp/kcal,au: -26.315637802377  -0.041936633761 
 E6   /kcal   : -12.476547237 
 E8   /kcal   : -13.839090565 
 % E8         :  52.588847243 

-------------------------   ----------------
Dispersion correction           -0.041936634
-------------------------   ----------------


-------------------------   --------------------
FINAL SINGLE POINT ENERGY     -1853.284740935314
-------------------------   --------------------

                                *** OPTIMIZATION RUN DONE ***

                            ***************************************
                            *     ORCA property calculations      *
                            ***************************************

                                    ---------------------
                                    Active property flags
                                    ---------------------
   (+) Dipole Moment


------------------------------------------------------------------------------
                       ORCA ELECTRIC PROPERTIES CALCULATION
------------------------------------------------------------------------------

Dipole Moment Calculation                       ... on
Quadrupole Moment Calculation                   ... off
Polarizability Calculation                      ... off
GBWName                                         ... rf_mecn_opt_B3L_C5_D_B.gbw
Electron density                                ... rf_mecn_opt_B3L_C5_D_B.scfp
The origin for moment calculation is the CENTER OF MASS  = (-0.063082, -0.138505  0.091722)

-------------
DIPOLE MOMENT
-------------
                                X             Y             Z
Electronic contribution:    -16.68190      -1.50792       4.32753
Nuclear contribution   :      8.66791       0.91965      -2.17060
                        -----------------------------------------
Total Dipole Moment    :     -8.01399      -0.58827       2.15693
                        -----------------------------------------
Magnitude (a.u.)       :      8.32000
Magnitude (Debye)      :     21.14776



--------------------
Rotational spectrum 
--------------------
 
Rotational constants in cm-1:     0.018771     0.004130     0.004036 
Rotational constants in MHz :   562.748645   123.801335   121.010799 

 Dipole components along the rotational axes: 
x,y,z [a.u.] :    -7.965747    -2.401578    -0.041287 
x,y,z [Debye]:   -20.247319    -6.104326    -0.104942 

 

Timings for individual modules:

Sum of individual times         ...     1943.788 sec (=  32.396 min)
GTO integral calculation        ...       20.083 sec (=   0.335 min)   1.0 %
SCF iterations                  ...     1603.312 sec (=  26.722 min)  82.5 %
SCF Gradient evaluation         ...      319.487 sec (=   5.325 min)  16.4 %
Geometry relaxation             ...        0.906 sec (=   0.015 min)   0.0 %
                             ****ORCA TERMINATED NORMALLY****
TOTAL RUN TIME: 0 days 0 hours 32 minutes 31 seconds 437 msec
