
                                 *****************
                                 * O   R   C   A *
                                 *****************

                                            #,                                       
                                            ###                                      
                                            ####                                     
                                            #####                                    
                                            ######                                   
                                           ########,                                 
                                     ,,################,,,,,                         
                               ,,#################################,,                 
                          ,,##########################################,,             
                       ,#########################################, ''#####,          
                    ,#############################################,,   '####,        
                  ,##################################################,,,,####,       
                ,###########''''           ''''###############################       
              ,#####''   ,,,,##########,,,,          '''####'''          '####       
            ,##' ,,,,###########################,,,                        '##       
           ' ,,###''''                  '''############,,,                           
         ,,##''                                '''############,,,,        ,,,,,,###''
      ,#''                                            '''#######################'''  
     '                                                          ''''####''''         
             ,#######,   #######,   ,#######,      ##                                
            ,#'     '#,  ##    ##  ,#'     '#,    #''#        ,####,   ,####,        
            ##       ##  ##   ,#'  ##            #'  '#       #'       #'  '#        
            ##       ##  #######   ##           ,######,      #####,   #    #        
            '#,     ,#'  ##    ##  '#,     ,#' ,#      #,     #,   #   #,  ,#        
             '#######'   ##     ##  '#######'  #'      '#     '####' # '####'        



                #########################################################
                #                        -***-                          #
                #          Department of theory and spectroscopy        #
                #                                                       #
                #                      Frank Neese                      #
                #                                                       #
                #     Directorship, Architecture, Infrastructure        #
                #                    SHARK, DRIVERS                     #
                #        Core code/Algorithms in most modules           #
                #                                                       #
                #        Max Planck Institute fuer Kohlenforschung      #
                #                Kaiser Wilhelm Platz 1                 #
                #                 D-45470 Muelheim/Ruhr                 #
                #                      Germany                          #
                #                                                       #
                #                  All rights reserved                  #
                #                        -***-                          #
                #########################################################


                         Program Version 6.0.1  -  RELEASE   -


 With contributions from (in alphabetic order):
[Max-Planck-Institut fuer Kohlenforschung]                               
  Daniel Aravena         : Magnetic Suceptibility                        
  Michael Atanasov       : Ab Initio Ligand Field Theory (pilot matlab implementation)
  Alexander A. Auer      : GIAO ZORA, VPT2 properties, NMR spectrum      
  Ute Becker             : All parallelization in ORCA, NUMFREQ, NUMCALC 
  Giovanni Bistoni       : ED, misc. LED, open-shell LED, HFLD           
  Martin Brehm           : Molecular dynamics                            
  Dmytro Bykov           : pre 5.0 version of the SCF Hessian            
  Marcos Casanova-Páez   : Triplet and SCS-CIS(D). UHF-(DLPNO)-IP/EA/STEOM-CCSD. UHF-CVS-IP/STEOM-CCSD   
  Vijay G. Chilkuri      : MRCI spin determinant printing, contributions to CSF-ICE 
  Pauline Colinet        : FMM embedding                                 
  Dipayan Datta          : RHF DLPNO-CCSD density                        
  Achintya Kumar Dutta   : EOM-CC, STEOM-CC                              
  Nicolas Foglia         : Exact transition moments, OPA infrastructure, MCD improvements    
  Dmitry Ganyushin       : Spin-Orbit,Spin-Spin,Magnetic field MRCI      
  Miquel Garcia-Rates    : C-PCM and meta-GGA Hessian, CCSD/C-PCM, Gaussian charge scheme 
  Tiago L. C. Gouveia    : GS-ROHF, GS-ROCIS                             
  Yang Guo               : DLPNO-NEVPT2, F12-NEVPT2, CIM, IAO-localization        
  Andreas Hansen         : Spin unrestricted coupled pair/coupled cluster methods 
  Ingolf Harden          : AUTO-CI MPn and infrastructure                
  Benjamin Helmich-Paris : MC-RPA, TRAH-(SCF,CASSCF), AVAS, COSX integrals, SCF dyn. polar. 
  Lee Huntington         : MR-EOM, pCC                                   
  Robert Izsak           : Overlap fitted RIJCOSX, COSX-SCS-MP3, EOM     
  Riya Kayal             : Wick's Theorem for AUTO-CI, AUTO-CI UHF-CCSDT 
  Emily Kempfer          : AUTO-CI, RHF CISDT and CCSDT                  
  Christian Kollmar      : KDIIS, OOCD, Brueckner-CCSD(T), CCSD density, CASPT2, CASPT2-K, improved NEVPT2 
  Axel Koslowski         : Symmetry handling                             
  Simone Kossmann        : meta-GGA functionals, TD-DFT gradient, OOMP2, (MP2 Hessian; deprecated post 5.0) 
  Lucas Lang             : DCDCAS                                        
  Marvin Lechner         : AUTO-CI (C++ implementation), FIC-MRCC        
  Spencer Leger          : CASSCF response                               
  Dagmar Lenk            : GEPOL surface, SMD, ORCA-2-JSON               
  Dimitrios Liakos       : Extrapolation schemes; Compound Job, initial MDCI parallelization 
  Dimitrios Manganas     : Further ROCIS development; embedding schemes. LFT, Crystal Embedding 
  Dimitrios Pantazis     : SARC Basis sets                               
  Anastasios Papadopoulos: AUTO-CI, single reference methods and gradients 
  Taras Petrenko         : pre 6.0 DFT Hessian and TD-DFT gradient, (ASA, deprecated), ECA, 1-Electron XAS/XES, NRVS 
  Peter Pinski           : DLPNO-MP2, DLPNO-MP2 Gradient                 
  Christoph Reimann      : Effective Core Potentials                     
  Marius Retegan         : Local ZFS, SOC                                
  Christoph Riplinger    : Optimizer, TS searches, QM/MM, DLPNO-CCSD(T), (RO)-DLPNO pert. Triples 
  Michael Roemelt        : Original ROCIS implementation                 
  Masaaki Saitow         : Open-shell DLPNO-CCSD energy and density      
  Barbara Sandhoefer     : DKH picture change effects                    
  Kantharuban Sivalingam : CASSCF convergence/infrastructure, NEVPT2 and variants, FIC-MRCI 
  Bernardo de Souza      : ESD, SOC TD-DFT                               
  Georgi L. Stoychev     : AutoAux, RI-MP2 NMR, DLPNO-MP2 response, X2C  
  Van Anh Tran           : RI-MP2 g-tensors                              
  Willem Van den Heuvel  : Paramagnetic NMR                              
  Zikuan Wang            : NOTCH, Electric field optimization            
  Frank Wennmohs         : Technical directorship and infrastructure     
  Hang Xu                : AUTO-CI-Response properties                   
                                                                         
[FACCTs GmbH]                                                            
  Markus Bursch, Miquel Garcia-Rates, Christoph Riplinger, Bernardo de Souza, Georgi L. Stoychev 
                                                                 
  APM, Basis sets (HGBS, AHGBS, def-TZVP (Ac-Lr), def2-XVPD (La-Lu)), CI-OPT, improved COSX, DLPNO-Multilevel,           
  DOCKER, DRACO, updates on ESD, GOAT, IRC, LR-CPCM, MBIS, meta-GGA TD-DFT gradient, ML-optimized integration grids, 
  MM, NACMEs, nearIR, NEB, NEB-TS, NL-DFT gradient (VV10), 2- and 3-layer-ONIOM, interface openCOSMO-RS, QMMM,   
  Crystal-QMMM, SF, symmetry and pop. for TD-DFT, r2SCAN hybrids, SOLVATOR                                   
                                                                         
[Other institutions]                                                     
  V. Asgeirsson          : NEB                                           
  Christoph Bannwarth    : sTDA-DFT, sTD-DFT, PBEh-3c, B97-3c, D3        
  Sebastian Ehlert       : rSCAN, r2SCAN, r2SCAN-3c, D4, dhf basis sets  
  Marvin Friede          : D4 for Fr, Ra, Ac-Lr                          
  Lars Goerigk           : TD-DFT with DH, B97 family of functionals     
  Stefan Grimme          : VdW corrections, initial TS optimization, DFT functionals, gCP, sTDA/sTD-DF 
  Waldemar Hujo          : DFT-NL                                        
  H. Jonsson             : NEB                                           
  Holger Kruse           : gCP                                           
  Marcel Mueller         : wB97X-3c, vDZP basis set                      
  Hagen Neugebauer       : wr2SCAN                                       
  Tobias Risthaus        : range-separated hybrid DFT                    
  Lukas Wittmann         : regularized MP2, r2SCAN double-hybrids, wr2SCAN        
                                                                         
We gratefully acknowledge several colleagues who have allowed us to      
interface, adapt or use parts of their codes:                            
  Ed Valeev, F. Pavosevic, A. Kumar             : LibInt (2-el integral package), F12 methods 
  Garnet Chan, S. Sharma, J. Yang, R. Olivares  : DMRG                   
  Ulf Ekstrom                                   : XCFun DFT Library      
  Mihaly Kallay                                 : mrcc  (arbitrary order and MRCC methods)
  Frank Weinhold                                : gennbo (NPA and NBO analysis)           
  Simon Mueller                                 : openCOSMO-RS                            
  Christopher J. Cramer and Donald G. Truhlar   : smd solvation model                     
  S Lehtola, MJT Oliveira, MAL Marques          : LibXC Library                           
  Liviu Ungur et al                             : ANISO software                          


 Your calculation uses the libint2 library for the computation of 2-el integrals
 For citations please refer to: http://libint.valeyev.net

 Your ORCA version has been built with support for libXC version: 6.2.2
 For citations please refer to: https://libxc.gitlab.io

 This ORCA versions uses:
   CBLAS   interface :  Fast vector & matrix operations
   LAPACKE interface :  Fast linear algebra routines
   SCALAPACK package :  Parallel linear algebra routines
   Shared memory     :  Shared parallel matrices
   BLAS/LAPACK       :  OpenBLAS 0.3.27  USE64BITINT DYNAMIC_ARCH NO_AFFINITY SkylakeX SINGLE_THREADED
        Core in use  :  SkylakeX
   Copyright (c) 2011-2014, The OpenBLAS Project


NOTE: MaxCore=8000 MB was set to SCF,MP2,MDCI,CIPSI,MRCI and CIS
      => If you want to overwrite this, your respective input block should be placed after the MaxCore statement
Your calculation utilizes the atom-pairwise dispersion correction
with the Becke-Johnson damping scheme (D3BJ)


Your calculation utilizes the SMD solvation module
Please cite in your paper:
A.V. Marenich, C.J. Cramer, D.G. Truhlar J. Phys. Chem. B, 113, (2009), 6378 

Warning: RI is on but no J-basis has been assigned. Assigning Def2/J (nothing to worry about!)
================================================================================

----- Orbital basis set information -----
Your calculation utilizes the basis: def2-TZVP
   F. Weigend and R. Ahlrichs, Phys. Chem. Chem. Phys. 7, 3297 (2005).

----- AuxJ basis set information -----
Your calculation utilizes the auxiliary basis: def2/J
   F. Weigend, Phys. Chem. Chem. Phys. 8, 1057 (2006).

================================================================================
                                        WARNINGS
                       Please study these warnings very carefully!
================================================================================


WARNING: your system is open-shell and RHF/RKS was chosen
  ===> : WILL SWITCH to UHF/UKS


WARNING: Geometry Optimization
  ===> : Switching off AutoStart
         For restart on a previous wavefunction, please use MOREAD

================================================================================
                                       INPUT FILE
================================================================================
NAME = rf_mecn_2H2O_opt_B3L_sw_004.inp
|  1> !B3LYP def2-TZVP opt d3 TightSCF SlowConv defgrid2
|  2>  
|  3> %pal
|  4> nprocs 20
|  5> end
|  6>  
|  7> %scf
|  8> MaxIter 1500
|  9> end
| 10>  
| 11> %maxcore 8000
| 12>  
| 13> !CPCM
| 14> %cpcm smd true
| 15> SMDsolvent "ACETONITRILE"
| 16> end
| 17>  
| 18> * xyz -2 2
| 19> 6        7.312757000     27.827789000      2.877596000
| 20> 6        6.822739000     26.370505000      3.068974000
| 21> 6        7.236574000     25.214832000      2.103762000
| 22> 6        6.796224000     23.703591000      2.195781000
| 23> 6        7.201952000     22.526603000      1.241300000
| 24> 6        6.752332000     21.043441000      1.448863000
| 25> 6        7.068050000     19.956746000      0.375378000
| 26> 6        6.728569000     18.498681000      0.832029000
| 27> 9        6.912465000     28.313813000      1.693257000
| 28> 9        8.651090000     27.893709000      2.934884000
| 29> 9        6.834772000     28.671956000      3.831099000
| 30> 9        7.232101000     26.014150000      4.329326000
| 31> 9        5.452852000     26.444719000      3.052118000
| 32> 9        6.820726000     25.636669000      0.848501000
| 33> 9        8.621994000     25.197305000      2.143667000
| 34> 9        7.211985000     23.296141000      3.459821000
| 35> 9        5.409606000     23.741739000      2.160386000
| 36> 9        6.763107000     22.891464000     -0.013023000
| 37> 9        8.580084000     22.508278000      1.236983000
| 38> 9        7.305876000     20.621125000      2.625375000
| 39> 9        5.392395000     21.046986000      1.605577000
| 40> 9        6.371514000     20.276465000     -0.756878000
| 41> 9        8.397324000     20.058276000      0.054923000
| 42> 8        7.648688000     17.880331000      1.402264000
| 43> 8        5.562896000     18.121540000      0.604283000
| 44> 8        3.370030000     19.012701000     -0.812369000
| 45> 1        2.708716000     18.413018000     -0.447158000
| 46> 1        4.201434000     18.777941000     -0.344572000
| 47> 1        9.201207000     18.500788000      1.994430000
| 48> 8       10.056490000     18.802427000      2.375109000
| 49> 1       10.077667000     19.747111000      2.182535000
| 50> *
| 51> 
| 52>                          ****END OF INPUT****
================================================================================

                       *****************************
                       * Geometry Optimization Run *
                       *****************************

Geometry optimization settings:
Update method            Update   .... BFGS
Choice of coordinates    CoordSys .... (2022) Redundant Internals
Initial Hessian          InHess   .... Almloef's Model
Max. no of cycles        MaxIter  .... 93

Convergence Tolerances:
Energy Change            TolE     ....  5.0000e-06 Eh
Max. Gradient            TolMAXG  ....  3.0000e-04 Eh/bohr
RMS Gradient             TolRMSG  ....  1.0000e-04 Eh/bohr
Max. Displacement        TolMAXD  ....  4.0000e-03 bohr
RMS Displacement         TolRMSD  ....  2.0000e-03 bohr
Strict Convergence                .... False

------------------------------------------------------------------------------
                        ORCA OPTIMIZATION COORDINATE SETUP
------------------------------------------------------------------------------

The optimization will be done in redundant internal coordinates (2022)
Making redundant internal coordinates   ...  (2022 redundants) done
Evaluating the initial hessian          ...  (Almloef) done
Evaluating the coordinates              ...  done
Calculating the B-matrix                .... done
Calculating the G-matrix                .... done
Diagonalizing the G-matrix              .... done
Small eigenvalue found = 3.762e-03
Small eigenvalue found = 4.862e-03
Small eigenvalue found = 8.965e-03
Small eigenvalue found = 1.325e-02
Small eigenvalue found = 2.300e-02
Small eigenvalue found = 2.947e-02
The first mode is                       ....   43
The number of degrees of freedom        ....   87

    -----------------------------------------------------------------
                    Redundant Internal Coordinates


    -----------------------------------------------------------------
         Definition                    Initial Value    Approx d2E/dq
    -----------------------------------------------------------------
      1. B(C   1,C   0)                  1.5493         0.347968   
      2. B(C   2,C   1)                  1.5616         0.332678   
      3. B(C   3,C   2)                  1.5768         0.314592   
      4. B(C   4,C   3)                  1.5687         0.324017   
      5. B(C   5,C   4)                  1.5637         0.330131   
      6. B(C   6,C   5)                  1.5598         0.334846   
      7. B(C   7,C   6)                  1.5652         0.328306   
      8. B(F   8,C   0)                  1.3413         0.621797   
      9. B(F   9,C   0)                  1.3412         0.622095   
     10. B(F  10,C   0)                  1.3602         0.580023   
     11. B(F  11,C   1)                  1.3722         0.555003   
     12. B(F  12,C   1)                  1.3720         0.555502   
     13. B(F  13,C   2)                  1.3880         0.523782   
     14. B(F  14,C   2)                  1.3861         0.527449   
     15. B(F  15,C   3)                  1.3916         0.516828   
     16. B(F  16,C   3)                  1.3876         0.524572   
     17. B(F  17,C   4)                  1.3781         0.543281   
     18. B(F  18,C   4)                  1.3783         0.542870   
     19. B(F  19,C   5)                  1.3671         0.565606   
     20. B(F  20,C   5)                  1.3689         0.561778   
     21. B(F  21,C   6)                  1.3673         0.565269   
     22. B(F  22,C   6)                  1.3711         0.557300   
     23. B(O  23,C   7)                  1.2467         0.947494   
     24. B(O  24,C   7)                  1.2462         0.949236   
     25. B(H  26,O  25)                  0.9645         0.511358   
     26. B(H  27,O  24)                  1.7846         0.025141   
     27. B(H  27,O  25)                  0.9824         0.478821   
     28. B(H  28,O  23)                  1.7737         0.026169   
     29. B(O  29,H  28)                  0.9836         0.476827   
     30. B(H  30,O  29)                  0.9643         0.511723   
     31. A(C   1,C   0,F   9)          110.8891         0.387838   
     32. A(C   1,C   0,F   8)          110.8243         0.387806   
     33. A(F   8,C   0,F  10)          106.8102         0.419822   
     34. A(F   9,C   0,F  10)          106.8703         0.419858   
     35. A(C   1,C   0,F  10)          112.7061         0.383139   
     36. A(F   8,C   0,F   9)          108.5243         0.425107   
     37. A(C   2,C   1,F  11)          107.2451         0.377271   
     38. A(C   0,C   1,C   2)          122.4076         0.351985   
     39. A(C   2,C   1,F  12)          107.2801         0.377330   
     40. A(C   0,C   1,F  12)          105.2716         0.380277   
     41. A(F  11,C   1,F  12)          108.8558         0.408284   
     42. A(C   0,C   1,F  11)          105.2696         0.380218   
     43. A(C   3,C   2,F  13)          105.0933         0.369941   
     44. A(C   1,C   2,F  14)          104.8593         0.373968   
     45. A(C   1,C   2,C   3)          126.8149         0.346051   
     46. A(C   1,C   2,F  13)          104.7543         0.373518   
     47. A(C   3,C   2,F  14)          105.3868         0.370385   
     48. A(F  13,C   2,F  14)          109.2282         0.400453   
     49. A(F  15,C   3,F  16)          109.2544         0.399128   
     50. A(C   4,C   3,F  16)          105.2813         0.371921   
     51. A(C   2,C   3,F  16)          104.5508         0.370037   
     52. A(C   2,C   3,C   4)          127.6875         0.344521   
     53. A(C   2,C   3,F  15)          104.4886         0.369093   
     54. A(C   4,C   3,F  15)          104.8158         0.370970   
     55. A(C   3,C   4,F  18)          105.6934         0.374125   
     56. A(C   5,C   4,F  17)          106.2835         0.375383   
     57. A(C   3,C   4,F  17)          105.8309         0.374174   
     58. A(C   3,C   4,C   5)          123.8155         0.347324   
     59. A(F  17,C   4,F  18)          108.6080         0.405096   
     60. A(C   5,C   4,F  18)          105.9812         0.375334   
     61. A(C   4,C   5,C   6)          120.7485         0.349254   
     62. A(F  19,C   5,F  20)          107.7295         0.410471   
     63. A(C   6,C   5,F  20)          106.3599         0.378489   
     64. A(C   4,C   5,F  20)          107.3611         0.377562   
     65. A(C   6,C   5,F  19)          107.1638         0.378935   
     66. A(C   4,C   5,F  19)          106.9072         0.378006   
     67. A(C   5,C   6,C   7)          113.8487         0.348927   
     68. A(F  21,C   6,F  22)          106.4412         0.409846   
     69. A(C   7,C   6,F  22)          110.3314         0.376678   
     70. A(C   5,C   6,F  22)          107.7878         0.377965   
     71. A(C   7,C   6,F  21)          110.4234         0.377604   
     72. A(C   5,C   6,F  21)          107.6922         0.378895   
     73. A(O  23,C   7,O  24)          128.6006         0.500417   
     74. A(C   6,C   7,O  24)          115.5631         0.415353   
     75. A(C   6,C   7,O  23)          115.8131         0.415217   
     76. A(C   7,O  23,H  28)          128.7001         0.246307   
     77. A(C   7,O  24,H  27)          134.3855         0.244951   
     78. A(H  26,O  25,H  27)          104.5583         0.316670   
     79. A(O  24,H  27,O  25)          170.6381         0.204127   
     80. L(O  23,H  28,O  29,H  30, 2) 175.8615         0.205067   
     81. L(O  23,H  28,O  29,H  30, 1) 183.0982         0.205067   
     82. A(H  28,O  29,H  30)          104.0183         0.316492   
     83. D(C   2,C   1,C   0,F  10)   -179.8983         0.009765   
     84. D(F  11,C   1,C   0,F   9)     62.3648         0.009765   
     85. D(F  11,C   1,C   0,F   8)   -177.0391         0.009765   
     86. D(F  11,C   1,C   0,F  10)    -57.3982         0.009765   
     87. D(C   2,C   1,C   0,F   9)    -60.1353         0.009765   
     88. D(C   2,C   1,C   0,F   8)     60.4608         0.009765   
     89. D(C   3,C   2,C   1,C   0)   -179.6868         0.008998   
     90. D(F  13,C   2,C   1,F  11)   -179.0260         0.008998   
     91. D(F  13,C   2,C   1,C   0)    -57.4466         0.008998   
     92. D(F  13,C   2,C   1,F  12)     64.1685         0.008998   
     93. D(C   3,C   2,C   1,F  11)     58.7337         0.008998   
     94. D(C   3,C   2,C   1,F  12)    -58.0717         0.008998   
     95. D(C   4,C   3,C   2,F  13)     58.0845         0.008145   
     96. D(C   4,C   3,C   2,F  14)    -57.2562         0.008145   
     97. D(C   4,C   3,C   2,C   1)   -179.8190         0.008145   
     98. D(F  15,C   3,C   2,F  14)     64.9775         0.008145   
     99. D(F  15,C   3,C   2,F  13)   -179.6818         0.008145   
    100. D(F  15,C   3,C   2,C   1)    -57.5852         0.008145   
    101. D(F  17,C   4,C   3,F  16)     63.0489         0.008582   
    102. D(F  17,C   4,C   3,F  15)    178.2549         0.008582   
    103. D(F  17,C   4,C   3,C   2)    -59.6474         0.008582   
    104. D(C   5,C   4,C   3,F  16)    -59.6838         0.008582   
    105. D(C   5,C   4,C   3,F  15)     55.5223         0.008582   
    106. D(C   5,C   4,C   3,C   2)    177.6200         0.008582   
    107. D(F  19,C   5,C   4,F  18)     58.0785         0.008874   
    108. D(F  19,C   5,C   4,F  17)    173.5111         0.008874   
    109. D(F  19,C   5,C   4,C   3)    -63.9598         0.008874   
    110. D(C   6,C   5,C   4,F  18)    -64.5857         0.008874   
    111. D(C   6,C   5,C   4,F  17)     50.8468         0.008874   
    112. D(C   6,C   5,C   4,C   3)    173.3759         0.008874   
    113. D(C   7,C   6,C   5,C   4)    171.7981         0.009104   
    114. D(F  21,C   6,C   5,F  20)     57.0282         0.009104   
    115. D(F  21,C   6,C   5,F  19)    172.0418         0.009104   
    116. D(F  21,C   6,C   5,C   4)    -65.4169         0.009104   
    117. D(C   7,C   6,C   5,F  20)    -65.7569         0.009104   
    118. D(C   7,C   6,C   5,F  19)     49.2567         0.009104   
    119. D(O  24,C   7,C   6,F  21)    -33.1642         0.008253   
    120. D(O  24,C   7,C   6,C   5)     88.1125         0.008253   
    121. D(O  23,C   7,C   6,F  22)     31.0474         0.008253   
    122. D(O  23,C   7,C   6,F  21)    148.4381         0.008253   
    123. D(O  23,C   7,C   6,C   5)    -90.2853         0.008253   
    124. D(H  28,O  23,C   7,O  24)   -167.5539         0.072364   
    125. D(H  28,O  23,C   7,C   6)     10.5965         0.072364   
    126. D(H  27,O  24,C   7,O  23)   -171.4612         0.072669   
    127. D(H  27,O  24,C   7,C   6)     10.3845         0.072669   
    128. D(O  24,H  27,O  25,H  26)     10.2082         0.246460   
    129. D(O  25,H  27,O  24,C   7)   -177.6209         0.001799   
    130. D(H  30,O  29,O  23,C   7)     -0.5280         0.001501   
    -----------------------------------------------------------------

Number of atoms                         .... 31
Number of degrees of freedom            .... 130


         *************************************************************
         *                GEOMETRY OPTIMIZATION CYCLE   1            *
         *************************************************************
---------------------------------
CARTESIAN COORDINATES (ANGSTROEM)
---------------------------------
  C      7.312757   27.827789    2.877596
  C      6.822739   26.370505    3.068974
  C      7.236574   25.214832    2.103762
  C      6.796224   23.703591    2.195781
  C      7.201952   22.526603    1.241300
  C      6.752332   21.043441    1.448863
  C      7.068050   19.956746    0.375378
  C      6.728569   18.498681    0.832029
  F      6.912465   28.313813    1.693257
  F      8.651090   27.893709    2.934884
  F      6.834772   28.671956    3.831099
  F      7.232101   26.014150    4.329326
  F      5.452852   26.444719    3.052118
  F      6.820726   25.636669    0.848501
  F      8.621994   25.197305    2.143667
  F      7.211985   23.296141    3.459821
  F      5.409606   23.741739    2.160386
  F      6.763107   22.891464   -0.013023
  F      8.580084   22.508278    1.236983
  F      7.305876   20.621125    2.625375
  F      5.392395   21.046986    1.605577
  F      6.371514   20.276465   -0.756878
  F      8.397324   20.058276    0.054923
  O      7.648688   17.880331    1.402264
  O      5.562896   18.121540    0.604283
  O      3.370030   19.012701   -0.812369
  H      2.708716   18.413018   -0.447158
  H      4.201434   18.777941   -0.344572
  H      9.201207   18.500788    1.994430
  O     10.056490   18.802427    2.375109
  H     10.077667   19.747111    2.182535

----------------------------
CARTESIAN COORDINATES (A.U.)
----------------------------
  NO LB      ZA    FRAG     MASS         X           Y           Z
   0 C     6.0000    0    12.011   13.819108   52.586900    5.437868
   1 C     6.0000    0    12.011   12.893108   49.833032    5.799520
   2 C     6.0000    0    12.011   13.675143   47.649127    3.975534
   3 C     6.0000    0    12.011   12.843002   44.793295    4.149425
   4 C     6.0000    0    12.011   13.609717   42.569110    2.345717
   5 C     6.0000    0    12.011   12.760058   39.766340    2.737954
   6 C     6.0000    0    12.011   13.356679   37.712784    0.709362
   7 C     6.0000    0    12.011   12.715153   34.957441    1.572307
   8 F     9.0000    0    18.998   13.062666   53.505352    3.199792
   9 F     9.0000    0    18.998   16.348191   52.711471    5.546127
  10 F     9.0000    0    18.998   12.915847   54.182145    7.239728
  11 F     9.0000    0    18.998   13.666690   49.159619    8.181240
  12 F     9.0000    0    18.998   10.304397   49.973277    5.767667
  13 F     9.0000    0    18.998   12.889304   48.446283    1.603435
  14 F     9.0000    0    18.998   16.293207   47.616006    4.050944
  15 F     9.0000    0    18.998   13.628677   44.023326    6.538114
  16 F     9.0000    0    18.998   10.222674   44.865385    4.082538
  17 F     9.0000    0    18.998   12.780420   43.258598   -0.024610
  18 F     9.0000    0    18.998   16.214009   42.534481    2.337559
  19 F     9.0000    0    18.998   13.806105   38.968279    4.961240
  20 F     9.0000    0    18.998   10.190150   39.773039    3.034101
  21 F     9.0000    0    18.998   12.040417   38.316966   -1.430292
  22 F     9.0000    0    18.998   15.868643   37.904648    0.103789
  23 O     8.0000    0    15.999   14.453926   33.788929    2.649895
  24 O     8.0000    0    15.999   10.512350   34.244748    1.141929
  25 O     8.0000    0    15.999    6.368434   35.928798   -1.535155
  26 H     1.0000    0     1.008    5.118731   34.795561   -0.845006
  27 H     1.0000    0     1.008    7.939560   35.485166   -0.651147
  28 H     1.0000    0     1.008   17.387761   34.961423    3.768926
  29 O     8.0000    0    15.999   19.004012   35.531438    4.488306
  30 H     1.0000    0     1.008   19.044031   37.316632    4.124393

--------------------------------
INTERNAL COORDINATES (ANGSTROEM)
--------------------------------
 C      0   0   0     0.000000000000     0.00000000     0.00000000
 C      1   0   0     1.549328834000     0.00000000     0.00000000
 C      2   1   0     1.561561300461   122.40764391     0.00000000
 C      3   2   1     1.576776768900   126.81494781   180.31318518
 C      4   3   2     1.568741515193   127.68752782   180.18104633
 C      5   4   3     1.563652794457   123.81548064   177.62002974
 C      6   5   4     1.559792910541   120.74849698   173.37594132
 C      7   6   5     1.565161662381   113.84867379   171.79808089
 F      1   2   3     1.341309763165   110.82426732    60.46082094
 F      1   2   3     1.341179548097   110.88913364   299.86471721
 F      1   2   3     1.360240991561   112.70614568   180.10170241
 F      2   1   3     1.372243891214   105.26955323   122.50009676
 F      2   1   3     1.371999356888   105.27159253   237.44936427
 F      3   2   1     1.388004391850   104.75428884   302.55343390
 F      3   2   1     1.386105400449   104.85927203    57.52814324
 F      4   3   2     1.391642854047   104.48864879   302.41480110
 F      4   3   2     1.387594160356   104.55076083    57.18342776
 F      5   4   3     1.378054669335   105.83085635   300.35263436
 F      5   4   3     1.378260589126   105.69341991    55.45157165
 F      6   5   4     1.367092626685   106.90720001   296.04021027
 F      6   5   4     1.368941375220   107.36111561    51.41269530
 F      7   6   5     1.367255019297   107.69217121   294.58310618
 F      7   6   5     1.371119657434   107.78784697    49.06079217
 O      8   7   6     1.246652979737   115.81308541   269.71473650
 O      8   7   6     1.246152926942   115.56307183    88.11249276
 O     25   8   7     2.758574289553   137.70367282    10.17975303
 H     26  25   8     0.964538740334    98.61101054   192.51748474
 H     26  25   8     0.982435189733     6.04072918     2.52660118
 H     24   8   7     1.773680553472   128.70007563    10.59654813
 O     29  24   8     0.983570840078   176.06236966   143.28009340
 H     30  29  24     0.964344891966   104.01828546   216.47736592

---------------------------
INTERNAL COORDINATES (A.U.)
---------------------------
 C      0   0   0     0.000000000000     0.00000000     0.00000000
 C      1   0   0     2.927807187648     0.00000000     0.00000000
 C      2   1   0     2.950923199202   122.40764391     0.00000000
 C      3   2   1     2.979676267550   126.81494781   180.31318518
 C      4   3   2     2.964491838627   127.68752782   180.18104633
 C      5   4   3     2.954875550064   123.81548064   177.62002974
 C      6   5   4     2.947581426554   120.74849698   173.37594132
 C      7   6   5     2.957726897213   113.84867379   171.79808089
 F      1   2   3     2.534708113136   110.82426732    60.46082094
 F      1   2   3     2.534462042319   110.88913364   299.86471721
 F      1   2   3     2.570482950184   112.70614568   180.10170241
 F      2   1   3     2.593165143340   105.26955323   122.50009676
 F      2   1   3     2.592703040434   105.27159253   237.44936427
 F      3   2   1     2.622948173276   104.75428884   302.55343390
 F      3   2   1     2.619359599598   104.85927203    57.52814324
 F      4   3   2     2.629823870378   104.48864879   302.41480110
 F      4   3   2     2.622172948101   104.55076083    57.18342776
 F      5   4   3     2.604145922614   105.83085635   300.35263436
 F      5   4   3     2.604535054625   105.69341991    55.45157165
 F      6   5   4     2.583430664137   106.90720001   296.04021027
 F      6   5   4     2.586924292560   107.36111561    51.41269530
 F      7   6   5     2.583737541701   107.69217121   294.58310618
 F      7   6   5     2.591040649386   107.78784697    49.06079217
 O      8   7   6     2.355832715739   115.81308541   269.71473650
 O      8   7   6     2.354887752905   115.56307183    88.11249276
 O     25   8   7     5.212949927331   137.70367282    10.17975303
 H     26  25   8     1.822714064790    98.61101054   192.51748474
 H     26  25   8     1.856533452922     6.04072918     2.52660118
 H     24   8   7     3.351770495125   128.70007563    10.59654813
 O     29  24   8     1.858679521058   176.06236966   143.28009340
 H     30  29  24     1.822347744462   104.01828546   216.47736592

---------------------
BASIS SET INFORMATION
---------------------
There are 4 groups of distinct atoms

 Group   1 Type C   : 11s6p2d1f contracted to 5s3p2d1f pattern {62111/411/11/1}
 Group   2 Type F   : 11s6p2d1f contracted to 5s3p2d1f pattern {62111/411/11/1}
 Group   3 Type O   : 11s6p2d1f contracted to 5s3p2d1f pattern {62111/411/11/1}
 Group   4 Type H   : 5s1p contracted to 3s1p pattern {311/1}

Atom   0C    basis set group =>   1
Atom   1C    basis set group =>   1
Atom   2C    basis set group =>   1
Atom   3C    basis set group =>   1
Atom   4C    basis set group =>   1
Atom   5C    basis set group =>   1
Atom   6C    basis set group =>   1
Atom   7C    basis set group =>   1
Atom   8F    basis set group =>   2
Atom   9F    basis set group =>   2
Atom  10F    basis set group =>   2
Atom  11F    basis set group =>   2
Atom  12F    basis set group =>   2
Atom  13F    basis set group =>   2
Atom  14F    basis set group =>   2
Atom  15F    basis set group =>   2
Atom  16F    basis set group =>   2
Atom  17F    basis set group =>   2
Atom  18F    basis set group =>   2
Atom  19F    basis set group =>   2
Atom  20F    basis set group =>   2
Atom  21F    basis set group =>   2
Atom  22F    basis set group =>   2
Atom  23O    basis set group =>   3
Atom  24O    basis set group =>   3
Atom  25O    basis set group =>   3
Atom  26H    basis set group =>   4
Atom  27H    basis set group =>   4
Atom  28H    basis set group =>   4
Atom  29O    basis set group =>   3
Atom  30H    basis set group =>   4
---------------------------------
AUXILIARY/J BASIS SET INFORMATION
---------------------------------
There are 4 groups of distinct atoms

 Group   1 Type C   : 12s5p4d2f1g contracted to 6s4p3d1f1g pattern {711111/2111/211/2/1}
 Group   2 Type F   : 12s5p4d2f1g contracted to 6s4p3d1f1g pattern {711111/2111/211/2/1}
 Group   3 Type O   : 12s5p4d2f1g contracted to 6s4p3d1f1g pattern {711111/2111/211/2/1}
 Group   4 Type H   : 5s2p1d contracted to 3s1p1d pattern {311/2/1}

Atom   0C    basis set group =>   1
Atom   1C    basis set group =>   1
Atom   2C    basis set group =>   1
Atom   3C    basis set group =>   1
Atom   4C    basis set group =>   1
Atom   5C    basis set group =>   1
Atom   6C    basis set group =>   1
Atom   7C    basis set group =>   1
Atom   8F    basis set group =>   2
Atom   9F    basis set group =>   2
Atom  10F    basis set group =>   2
Atom  11F    basis set group =>   2
Atom  12F    basis set group =>   2
Atom  13F    basis set group =>   2
Atom  14F    basis set group =>   2
Atom  15F    basis set group =>   2
Atom  16F    basis set group =>   2
Atom  17F    basis set group =>   2
Atom  18F    basis set group =>   2
Atom  19F    basis set group =>   2
Atom  20F    basis set group =>   2
Atom  21F    basis set group =>   2
Atom  22F    basis set group =>   2
Atom  23O    basis set group =>   3
Atom  24O    basis set group =>   3
Atom  25O    basis set group =>   3
Atom  26H    basis set group =>   4
Atom  27H    basis set group =>   4
Atom  28H    basis set group =>   4
Atom  29O    basis set group =>   3
Atom  30H    basis set group =>   4


           ************************************************************
           *        Program running with 20 parallel MPI-processes    *
           *              working on a common directory               *
           ************************************************************
------------------------------------------------------------------------------
                             ORCA STARTUP CALCULATIONS
                           -- RI-GTO INTEGRALS CHOSEN --
------------------------------------------------------------------------------
------------------------------------------------------------------------------
                   ___                                                        
                  /   \      - P O W E R E D   B Y -                         
                 /     \                                                     
                 |  |  |   _    _      __       _____    __    __             
                 |  |  |  | |  | |    /  \     |  _  \  |  |  /  |          
                  \  \/   | |  | |   /    \    | | | |  |  | /  /          
                 / \  \   | |__| |  /  /\  \   | |_| |  |  |/  /          
                |  |  |   |  __  | /  /__\  \  |    /   |      \           
                |  |  |   | |  | | |   __   |  |    \   |  |\   \          
                \     /   | |  | | |  |  |  |  | |\  \  |  | \   \       
                 \___/    |_|  |_| |__|  |__|  |_| \__\ |__|  \__/        
                                                                              
                      - O R C A' S   B I G   F R I E N D -                    
                                      &                                       
                       - I N T E G R A L  F E E D E R -                       
                                                                              
 v1 FN, 2020, v2 2021, v3 2022-2024                                           
------------------------------------------------------------------------------


----------------------
SHARK INTEGRAL PACKAGE
----------------------

Number of atoms                             ...     31
Number of basis functions                   ...    861
Number of shells                            ...    313
Maximum angular momentum                    ...      3
Integral batch strategy                     ... SHARK/LIBINT Hybrid
RI-J (if used) integral strategy            ... SPLIT-RIJ (Revised 2003 algorithm where possible)
Printlevel                                  ...      1
Contraction scheme used                     ... SEGMENTED contraction
Prescreening option                         ... SCHWARTZ
   Thresh                                   ... 2.500e-11
   Tcut                                     ... 2.500e-12
   Tpresel                                  ... 2.500e-12 
Coulomb Range Separation                    ... NOT USED
Exchange Range Separation                   ... NOT USED
Multipole approximations                    ... NOT USED
Finite Nucleus Model                        ... NOT USED
CABS basis                                  ... NOT available
Auxiliary Coulomb fitting basis             ... AVAILABLE
   # of basis functions in Aux-J            ...   1367
   # of shells in Aux-J                     ...    425
   Maximum angular momentum in Aux-J        ...      4
Auxiliary J/K fitting basis                 ... NOT available
Auxiliary Correlation fitting basis         ... NOT available
Auxiliary 'external' fitting basis          ... NOT available

Checking pre-screening integrals            ... done (  0.0 sec) Dimension = 313
Check shell pair data                       ... done (  0.0 sec)
Shell pair information
Shell pair cut-off parameter TPreSel        ...   2.5e-12
Total number of shell pairs                 ...     49141
Shell pairs after pre-screening             ...     27515
Total number of primitive shell pairs       ...    159936
Primitive shell pairs kept                  ...     56988
          la=0 lb=0:   5557 shell pairs
          la=1 lb=0:   7711 shell pairs
          la=1 lb=1:   2577 shell pairs
          la=2 lb=0:   4016 shell pairs
          la=2 lb=1:   2822 shell pairs
          la=2 lb=2:    759 shell pairs
          la=3 lb=0:   1823 shell pairs
          la=3 lb=1:   1368 shell pairs
          la=3 lb=2:    716 shell pairs
          la=3 lb=3:    166 shell pairs

Calculating one electron integrals          ... done (  0.0 sec)
Calculating RI/J V-Matrix + Cholesky decomp.... done (  0.1 sec)
Calculating Nuclear repulsion               ... done (  0.0 sec) ENN=   3212.591094488227 Eh

Diagonalization of the overlap matrix:
Smallest eigenvalue                        ... 9.683e-05
Time for diagonalization                   ...    0.142 sec
Threshold for overlap eigenvalues          ... 1.000e-07
Number of eigenvalues below threshold      ... 0
Time for construction of square roots      ...    0.069 sec
Total time needed                          ...    0.219 sec

-------------------
DFT GRID GENERATION
-------------------

General Integration Accuracy     IntAcc      ... 4.388
Radial Grid Type                 RadialGrid  ... OptM3 with GC (2021)
Angular Grid (max. ang.)         AngularGrid ... 4 (Lebedev-302)
Angular grid pruning method      GridPruning ... 4 (adaptive)
Weight generation scheme         WeightScheme... mBecke (2022)
Basis function cutoff            BFCut       ... 1.0000e-11
Integration weight cutoff        WCut        ... 1.0000e-14
Partially contracted basis set               ... off
Rotationally invariant grid construction     ... off
Angular grids for H and He will be reduced by one unit

Total number of grid points                  ...   176632
Total number of batches                      ...     2774
Average number of points per batch           ...       63
Average number of grid points per atom       ...     5698

--------------------
COSX GRID GENERATION
--------------------

GRIDX 1
-------
General Integration Accuracy     IntAcc      ... 3.816
Radial Grid Type                 RadialGrid  ... OptM3 with GC (2021)
Angular Grid (max. ang.)         AngularGrid ... 1 (Lebedev-50)
Angular grid pruning method      GridPruning ... 4 (adaptive)
Weight generation scheme         WeightScheme... mBecke (2022)
Basis function cutoff            BFCut       ... 1.0000e-11
Integration weight cutoff        WCut        ... 1.0000e-14
Partially contracted basis set               ... on
Rotationally invariant grid construction     ... off
Angular grids for H and He will be reduced by one unit

Total number of grid points                  ...    22227
Total number of batches                      ...      187
Average number of points per batch           ...      118
Average number of grid points per atom       ...      717
UseSFitting                                  ... on

GRIDX 2
-------
General Integration Accuracy     IntAcc      ... 4.020
Radial Grid Type                 RadialGrid  ... OptM3 with GC (2021)
Angular Grid (max. ang.)         AngularGrid ... 2 (Lebedev-110)
Angular grid pruning method      GridPruning ... 4 (adaptive)
Weight generation scheme         WeightScheme... mBecke (2022)
Basis function cutoff            BFCut       ... 1.0000e-11
Integration weight cutoff        WCut        ... 1.0000e-14
Partially contracted basis set               ... on
Rotationally invariant grid construction     ... off
Angular grids for H and He will be reduced by one unit

Total number of grid points                  ...    51595
Total number of batches                      ...      415
Average number of points per batch           ...      124
Average number of grid points per atom       ...     1664
UseSFitting                                  ... on

GRIDX 3
-------
General Integration Accuracy     IntAcc      ... 4.338
Radial Grid Type                 RadialGrid  ... OptM3 with GC (2021)
Angular Grid (max. ang.)         AngularGrid ... 3 (Lebedev-194)
Angular grid pruning method      GridPruning ... 4 (adaptive)
Weight generation scheme         WeightScheme... mBecke (2022)
Basis function cutoff            BFCut       ... 1.0000e-11
Integration weight cutoff        WCut        ... 1.0000e-14
Partially contracted basis set               ... on
Rotationally invariant grid construction     ... off
Angular grids for H and He will be reduced by one unit

Total number of grid points                  ...   114131
Total number of batches                      ...      905
Average number of points per batch           ...      126
Average number of grid points per atom       ...     3682
UseSFitting                                  ... on
Initializing property integral containers    ... done (  0.0 sec)

SHARK setup successfully completed in   3.2 seconds

Maximum memory used throughout the entire STARTUP-calculation: 68.3 MB


           ************************************************************
           *        Program running with 20 parallel MPI-processes    *
           *              working on a common directory               *
           ************************************************************
-------------------------------------------------------------------------------
                                 ORCA GUESS
                   Start orbitals & Density for SCF / CASSCF
-------------------------------------------------------------------------------

------------
SCF SETTINGS
------------
Hamiltonian:
 Density Functional     Method          .... DFT(GTOs)
 Exchange Functional    Exchange        .... B88
   X-Alpha parameter    XAlpha          ....  0.666667
   Becke's b parameter  XBeta           ....  0.004200
 Correlation Functional Correlation     .... LYP
 LDA part of GGA corr.  LDAOpt          .... VWN-5
 Gradients option       PostSCFGGA      .... off
 Hybrid DFT is turned on
   Fraction HF Exchange ScalHFX         ....  0.200000
   Scaling of DF-GGA-X  ScalDFX         ....  0.720000
   Scaling of DF-GGA-C  ScalDFC         ....  0.810000
   Scaling of DF-LDA-C  ScalLDAC        ....  1.000000
   Perturbative correction              ....  0.000000
   NL short-range parameter             ....  4.800000
 RI-approximation to the Coulomb term is turned on
   Number of AuxJ basis functions       .... 1367
   RIJ-COSX (HFX calculated with COS-X)).... on


General Settings:
 Integral files         IntName         .... rf_mecn_2H2O_opt_B3L_sw_004
 Hartree-Fock type      HFTyp           .... UHF
 Total Charge           Charge          ....   -2
 Multiplicity           Mult            ....    2
 Number of Electrons    NEL             ....  221
 Basis Dimension        Dim             ....  861
 Nuclear Repulsion      ENuc            ....   3212.5910944882 Eh

Convergence Acceleration:
 AO-DIIS                CNVDIIS         .... on
   Start iteration      DIISMaxIt       ....     0
   Startup error        DIISStart       ....  0.200000
   # of expansion vecs  DIISMaxEq       ....     5
   Bias factor          DIISBfac        ....   1.050
   Max. coefficient     DIISMaxC        ....  10.000
 MO-DIIS                CNVKDIIS        .... off
 Trust-Rad. Augm. Hess. CNVTRAH         .... auto
   Auto Start mean grad. ratio tolernc. ....  1.125000
   Auto Start start iteration           ....    50
   Auto Start num. interpolation iter.  ....    10
   Max. Number of Micro iterations      ....    24
   Max. Number of Macro iterations      .... Maxiter - #DIIS iter
   Number of Davidson start vectors     ....     2
   Converg. threshold    (grad. norm)   ....   1.000e-05
   Grad. Scal. Fac. for Micro threshold ....   0.100
   Minimum threshold for Micro iter.    ....   1.000e-02
   NR start threshold (gradient norm)   ....   1.000e-04
   Initial trust radius                 ....   0.400
   Minimum AH scaling param. (alpha)    ....   1.000
   Maximum AH scaling param. (alpha)    .... 1000.000
   Quad. conv. algorithm                .... NR
   White noise on init. David. guess    .... on
   Maximum white noise                  ....   0.010
   Pseudo random numbers                .... off
   Inactive MOs                         .... canonical
   Orbital update algorithm             .... Taylor
   Preconditioner                       .... Diag
   Full preconditioner red. dimension   ....   250
 SOSCF                  CNVSOSCF        .... on
   Start iteration      SOSCFMaxIt      ....   150
   Startup grad/error   SOSCFStart      ....  0.001000
   Hessian update       SOSCFHessUp     .... L-BFGS
 Level Shifting         CNVShift        .... on
   Level shift para.    LevelShift      ....    0.2500
   Turn off err/grad.   ShiftErr        ....    0.0000
 Zerner damping         CNVZerner       .... off
 Static damping         CNVDamp         .... on
   Fraction old density DampFac         ....    0.8500
   Max. Damping (<1)    DampMax         ....    0.9800
   Min. Damping (>=0)   DampMin         ....    0.0000
   Turn off err/grad.   DampErr         ....    0.0300

SCF Procedure:
 Maximum # iterations   MaxIter         ....  1500
 SCF integral mode      SCFMode         .... Direct
   Integral package                     .... SHARK and LIBINT hybrid scheme
 Reset frequency        DirectResetFreq ....    20
 Integral Threshold     Thresh          ....  2.500e-11 Eh
 Primitive CutOff       TCut            ....  2.500e-12 Eh

Convergence Tolerance:
 Convergence Check Mode ConvCheckMode   .... Total+1el-Energy
 Convergence forced     ConvForced      .... 0
 Energy Change          TolE            ....  1.000e-08 Eh
 1-El. energy change                    ....  1.000e-05 Eh
 Orbital Gradient       TolG            ....  1.000e-05
 Orbital Rotation angle TolX            ....  1.000e-05
 DIIS Error             TolErr          ....  5.000e-07

------------------------------
INITIAL GUESS: MODEL POTENTIAL
------------------------------
Loading Hartree-Fock densities                     ... done
Calculating cut-offs                               ... done
Initializing the effective Hamiltonian             ... done
Setting up the integral package (SHARK)            ... done
Starting the Coulomb interaction                   ... done (   0.2 sec)
Making the grid                                    ... done (   0.5 sec)
Mapping shells                                     ... done
Starting the XC term evaluation                    ... done (   0.1 sec)
  promolecular density results
     # of electrons  =    218.995100347
     EX              =   -225.804916140
     EC              =     -8.173248789
     EX+EC           =   -233.978164929
Transforming the Hamiltonian                       ... done (   0.1 sec)
Diagonalizing the Hamiltonian                      ... done (   0.2 sec)
Back transforming the eigenvectors                 ... done (   0.0 sec)
Now organizing SCF variables                       ... done
                      ------------------
                      INITIAL GUESS DONE (   1.3 sec)
                      ------------------
             **** ENERGY FILE WAS UPDATED (rf_mecn_2H2O_opt_B3L_sw_004.en.tmp) ****
Finished Guess after   2.0 sec
Maximum memory used throughout the entire GUESS-calculation: 57.2 MB


           ************************************************************
           *        Program running with 20 parallel MPI-processes    *
           *              working on a common directory               *
           ************************************************************

-------------------------------------------------------------------------------------------
                                      ORCA LEAN-SCF
                              memory conserving SCF solver
-------------------------------------------------------------------------------------------

--------------------
CPCM SOLVATION MODEL
--------------------
CPCM parameters:
  Epsilon                                         ...      35.6880
  Refrac                                          ...       1.3442
  Rsolv                                           ...       1.3000
  Surface type                                    ... GAUSSIAN VDW
  Discretization scheme                           ... Constant charge density
    Threshold for H atoms                         ...       5.0000 (charges/Ang^2)
    Threshold for non-H atoms                     ...       5.0000 (charges/Ang^2)
  Epsilon function type                           ...         CPCM
Solvent:                                          ... ACETONITRILE
SMD-CDS solvent descriptors:
  Soln                                            ...       1.3442
  Soln25                                          ...       1.3416
  Sola                                            ...       0.0700
  Solb                                            ...       0.3200
  Solg                                            ...      41.2500
  Solc                                            ...       0.0000
  Solh                                            ...       0.0000
Radii:
  Scheme                                          ... Element-dependent radii
  Radius for C  used is    3.4960 Bohr (=   1.8500 Ang.)
  Radius for F  used is    3.2692 Bohr (=   1.7300 Ang.)
  Radius for O  used is    4.0969 Bohr (=   2.1680 Ang.)
  Radius for H  used is    2.2677 Bohr (=   1.2000 Ang.)
Calculating surface                               ...        done! (  0.0s)
Cavity surface points                             ...         2701
Cavity Volume                                     ...    2656.0227
Cavity Surface-area                               ...    1371.6531
Calculating surface distance matrix               ...        done! (  0.1s)
Performing Cholesky decomposition & store         ...        done! (  0.2s)
Overall time for CPCM initialization              ...                 0.2s

----------------------------------------D-I-I-S--------------------------------------------
Iteration    Energy (Eh)           Delta-E    RMSDP     MaxDP     DIISErr   Damp  Time(sec)
-------------------------------------------------------------------------------------------
               ***  Starting incremental Fock matrix formation  ***
    1    -2105.1393772456913211     0.00e+00  5.54e-04  1.05e-01  1.92e-01  0.850   8.1
Warning: op=0 Small HOMO/LUMO gap (   0.004) - skipping pre-diagonalization
         Will do a full diagonalization
    2    -2105.4317501605883081    -2.92e-01  7.54e-04  1.83e-01  1.30e-01  0.850   5.6
                               ***Turning on AO-DIIS***
    3    -2105.5923512218632823    -1.61e-01  5.03e-04  1.21e-01  7.82e-02  0.850   4.8
    4    -2105.6879336238735050    -9.56e-02  3.57e-04  8.86e-02  5.76e-02  0.850   4.9
    5    -2105.7556908103388196    -6.78e-02  2.59e-04  5.75e-02  4.56e-02  0.850   4.8
    6    -2105.8088285857456867    -5.31e-02  1.94e-04  3.59e-02  3.75e-02  0.850   4.6
    7    -2105.8523666977707762    -4.35e-02  1.52e-04  2.25e-02  3.15e-02  0.850   4.7
    8    -2105.8886622581503616    -3.63e-02  1.24e-04  1.69e-02  2.66e-02  0.850   4.5
    9    -2105.9190712442796212    -3.04e-02  6.89e-04  9.79e-02  2.23e-02  0.000   4.6
   10    -2106.0840575529227863    -1.65e-01  5.10e-05  9.52e-03  3.18e-03  0.000   4.9
   11    -2106.0843705356519422    -3.13e-04  5.13e-05  1.12e-02  1.06e-03  0.000   4.3
                              *** Initializing SOSCF ***
---------------------------------------S-O-S-C-F--------------------------------------
Iteration    Energy (Eh)           Delta-E    RMSDP     MaxDP     MaxGrad    Time(sec)
--------------------------------------------------------------------------------------
   12    -2106.0844491262050724    -7.86e-05  3.29e-05  7.83e-03  7.02e-04     4.8
               *** Restarting incremental Fock matrix formation ***
   13    -2106.0844539052041000    -4.78e-06  6.13e-05  1.61e-02  1.44e-03     7.7
   14    -2106.0844901764494352    -3.63e-05  4.71e-05  1.27e-02  4.41e-04     6.0
   15    -2106.0844904855284767    -3.09e-07  1.68e-05  4.35e-03  4.39e-04     6.0
   16    -2106.0844992668071427    -8.78e-06  4.77e-06  1.09e-03  1.34e-04     5.5
   17    -2106.0844987601849425     5.07e-07  2.64e-06  6.41e-04  2.17e-04     5.1
   18    -2106.0844996825599083    -9.22e-07  1.35e-06  2.84e-04  2.92e-05     4.7
   19    -2106.0844996345485924     4.80e-08  7.35e-07  1.66e-04  2.71e-05     4.3
   20    -2106.0844997347785466    -1.00e-07  2.58e-07  8.06e-05  3.10e-06     4.0
   21    -2106.0844997236426934     1.11e-08  8.85e-08  1.74e-05  3.37e-06     3.7
   22    -2106.0844997333915671    -9.75e-09  3.33e-07  9.84e-05  4.64e-07     3.3
                 **** Energy Check signals convergence ****

               *****************************************************
               *                     SUCCESS                       *
               *           SCF CONVERGED AFTER  22 CYCLES          *
               *****************************************************

Recomputing exchange energy using gridx3       ... done (   10.125 sec)
Old exchange energy                            :    -45.413953318 Eh
New exchange energy                            :    -45.414045742 Eh
Exchange energy change after final integration :     -0.000092424 Eh
Total energy after final integration           :  -2106.084592158 Eh

SMD CDS free energy correction energy :                 2.89402     Kcal/mol
Total Energy after SMD CDS correction =             -2106.079980237 Eh
             **** ENERGY FILE WAS UPDATED (rf_mecn_2H2O_opt_B3L_sw_004.en.tmp) ****

----------------
TOTAL SCF ENERGY
----------------

Total Energy       :      -2106.07998023723940 Eh          -57309.34981 eV

Components:
Nuclear Repulsion  :       3212.59109448822710 Eh           87419.04798 eV
Electronic Energy  :      -5318.45161659668520 Eh         -144722.42603 eV
One Electron Energy:      -9381.85068554547979 Eh         -255293.13601 eV
Two Electron Energy:       4063.39906894879414 Eh          110570.70997 eV
CPCM Dielectric    :         -0.22397762493327 Eh              -6.09474 eV
SMD CDS (Gcds)     :          0.00461192040733 Eh               0.12550 eV

Virial components:
Potential Energy   :      -4205.02719572281057 Eh         -114424.60723 eV
Kinetic Energy     :       2098.94721548557118 Eh           57115.25742 eV
Virial Ratio       :          2.00339825827874

DFT components:
N(Alpha)           :      111.000018143248 electrons
N(Beta)            :      110.000018902847 electrons
N(Total)           :      221.000037046095 electrons
E(X)               :     -181.040756477405 Eh       
E(C)               :       -9.639652745972 Eh       
E(XC)              :     -190.680409223377 Eh       

CPCM Solvation Model Properties:
Surface-charge          :          1.98869289634289
Corrected charge        :          2.00000000000000
Outlying charge corr.   :          0.00000634325700 Eh               0.00017 eV
Free-energy (cav+disp)  :          0.00461192040733 Eh               0.12550 eV

---------------
SCF CONVERGENCE
---------------

  Last Energy change         ...    9.7489e-09  Tolerance :   1.0000e-08
  Last MAX-Density change    ...    9.8399e-05  Tolerance :   1.0000e-07
  Last RMS-Density change    ...    3.3327e-07  Tolerance :   5.0000e-09
  Last DIIS Error            ...    7.0153e-04  Tolerance :   5.0000e-07
  Last Orbital Gradient      ...    4.6444e-07  Tolerance :   1.0000e-05
  Last Orbital Rotation      ...    3.5854e-06  Tolerance :   1.0000e-05


----------------------
UHF SPIN CONTAMINATION
----------------------

Warning: in a DFT calculation there is little theoretical justification to 
         calculate <S**2> as in Hartree-Fock theory. We will do it anyways
         but you should keep in mind that the values have only limited relevance

Expectation value of <S**2>     :     0.752966
Ideal value S*(S+1) for S=0.5   :     0.750000
Deviation                       :     0.002966

----------------
ORBITAL ENERGIES
----------------
                 SPIN UP ORBITALS
  NO   OCC          E(Eh)            E(eV) 
   0   1.0000     -24.722181      -672.7247 
   1   1.0000     -24.722050      -672.7212 
   2   1.0000     -24.715239      -672.5358 
   3   1.0000     -24.704208      -672.2357 
   4   1.0000     -24.704123      -672.2334 
   5   1.0000     -24.698332      -672.0758 
   6   1.0000     -24.696970      -672.0387 
   7   1.0000     -24.691814      -671.8984 
   8   1.0000     -24.690989      -671.8760 
   9   1.0000     -24.689035      -671.8228 
  10   1.0000     -24.688534      -671.8092 
  11   1.0000     -24.688534      -671.8092 
  12   1.0000     -24.688422      -671.8061 
  13   1.0000     -24.683901      -671.6831 
  14   1.0000     -24.683196      -671.6639 
  15   1.0000     -19.083193      -519.2801 
  16   1.0000     -19.081517      -519.2345 
  17   1.0000     -19.070682      -518.9396 
  18   1.0000     -19.070622      -518.9380 
  19   1.0000     -10.429817      -283.8098 
  20   1.0000     -10.359001      -281.8828 
  21   1.0000     -10.350718      -281.6574 
  22   1.0000     -10.344266      -281.4818 
  23   1.0000     -10.341492      -281.4063 
  24   1.0000     -10.335626      -281.2467 
  25   1.0000     -10.334765      -281.2233 
  26   1.0000     -10.261010      -279.2163 
  27   1.0000      -1.323107       -36.0036 
  28   1.0000      -1.273823       -34.6625 
  29   1.0000      -1.269458       -34.5437 
  30   1.0000      -1.254985       -34.1499 
  31   1.0000      -1.249572       -34.0026 
  32   1.0000      -1.245126       -33.8816 
  33   1.0000      -1.238954       -33.7136 
  34   1.0000      -1.234202       -33.5844 
  35   1.0000      -1.228410       -33.4267 
  36   1.0000      -1.214222       -33.0407 
  37   1.0000      -1.211813       -32.9751 
  38   1.0000      -1.200773       -32.6747 
  39   1.0000      -1.195257       -32.5246 
  40   1.0000      -1.194370       -32.5005 
  41   1.0000      -1.187186       -32.3050 
  42   1.0000      -1.033436       -28.1212 
  43   1.0000      -0.968667       -26.3588 
  44   1.0000      -0.965915       -26.2839 
  45   1.0000      -0.946385       -25.7524 
  46   1.0000      -0.794411       -21.6170 
  47   1.0000      -0.785217       -21.3668 
  48   1.0000      -0.758054       -20.6277 
  49   1.0000      -0.728216       -19.8158 
  50   1.0000      -0.690962       -18.8020 
  51   1.0000      -0.660339       -17.9687 
  52   1.0000      -0.634577       -17.2677 
  53   1.0000      -0.608623       -16.5615 
  54   1.0000      -0.607147       -16.5213 
  55   1.0000      -0.605354       -16.4725 
  56   1.0000      -0.591660       -16.0999 
  57   1.0000      -0.584433       -15.9032 
  58   1.0000      -0.579776       -15.7765 
  59   1.0000      -0.571625       -15.5547 
  60   1.0000      -0.569856       -15.5066 
  61   1.0000      -0.558063       -15.1857 
  62   1.0000      -0.557715       -15.1762 
  63   1.0000      -0.553800       -15.0697 
  64   1.0000      -0.544260       -14.8101 
  65   1.0000      -0.538897       -14.6641 
  66   1.0000      -0.534494       -14.5443 
  67   1.0000      -0.523934       -14.2570 
  68   1.0000      -0.506531       -13.7834 
  69   1.0000      -0.491551       -13.3758 
  70   1.0000      -0.481076       -13.0907 
  71   1.0000      -0.480880       -13.0854 
  72   1.0000      -0.475501       -12.9390 
  73   1.0000      -0.461267       -12.5517 
  74   1.0000      -0.458968       -12.4891 
  75   1.0000      -0.456810       -12.4304 
  76   1.0000      -0.455381       -12.3916 
  77   1.0000      -0.451742       -12.2925 
  78   1.0000      -0.449508       -12.2317 
  79   1.0000      -0.447326       -12.1724 
  80   1.0000      -0.444234       -12.0882 
  81   1.0000      -0.443445       -12.0668 
  82   1.0000      -0.440446       -11.9852 
  83   1.0000      -0.434750       -11.8302 
  84   1.0000      -0.432398       -11.7662 
  85   1.0000      -0.425076       -11.5669 
  86   1.0000      -0.422340       -11.4925 
  87   1.0000      -0.421199       -11.4614 
  88   1.0000      -0.420417       -11.4401 
  89   1.0000      -0.416864       -11.3435 
  90   1.0000      -0.410761       -11.1774 
  91   1.0000      -0.409981       -11.1562 
  92   1.0000      -0.406294       -11.0558 
  93   1.0000      -0.403971       -10.9926 
  94   1.0000      -0.402089       -10.9414 
  95   1.0000      -0.400523       -10.8988 
  96   1.0000      -0.397406       -10.8140 
  97   1.0000      -0.390819       -10.6347 
  98   1.0000      -0.390626       -10.6295 
  99   1.0000      -0.381507       -10.3813 
 100   1.0000      -0.372654       -10.1404 
 101   1.0000      -0.354115        -9.6360 
 102   1.0000      -0.351755        -9.5717 
 103   1.0000      -0.346895        -9.4395 
 104   1.0000      -0.317564        -8.6414 
 105   1.0000      -0.281550        -7.6614 
 106   1.0000      -0.279108        -7.5949 
 107   1.0000      -0.259034        -7.0487 
 108   1.0000      -0.250178        -6.8077 
 109   1.0000      -0.246383        -6.7044 
 110   1.0000      -0.074392        -2.0243 
 111   0.0000       0.016575         0.4510 
 112   0.0000       0.042686         1.1615 
 113   0.0000       0.058175         1.5830 
 114   0.0000       0.062729         1.7069 
 115   0.0000       0.068887         1.8745 
 116   0.0000       0.079345         2.1591 
 117   0.0000       0.100402         2.7321 
 118   0.0000       0.110730         3.0131 
 119   0.0000       0.124026         3.3749 
 120   0.0000       0.127939         3.4814 
 121   0.0000       0.140367         3.8196 

                 SPIN DOWN ORBITALS
  NO   OCC          E(Eh)            E(eV) 
   0   1.0000     -24.722131      -672.7234 
   1   1.0000     -24.721999      -672.7198 
   2   1.0000     -24.714248      -672.5089 
   3   1.0000     -24.703833      -672.2255 
   4   1.0000     -24.703740      -672.2229 
   5   1.0000     -24.698180      -672.0717 
   6   1.0000     -24.696764      -672.0331 
   7   1.0000     -24.691388      -671.8868 
   8   1.0000     -24.690554      -671.8641 
   9   1.0000     -24.688452      -671.8069 
  10   1.0000     -24.688390      -671.8053 
  11   1.0000     -24.688300      -671.8028 
  12   1.0000     -24.687863      -671.7909 
  13   1.0000     -24.683227      -671.6648 
  14   1.0000     -24.682479      -671.6444 
  15   1.0000     -19.083194      -519.2801 
  16   1.0000     -19.081518      -519.2345 
  17   1.0000     -19.070392      -518.9317 
  18   1.0000     -19.070332      -518.9301 
  19   1.0000     -10.428559      -283.7755 
  20   1.0000     -10.357060      -281.8299 
  21   1.0000     -10.349422      -281.6221 
  22   1.0000     -10.341861      -281.4163 
  23   1.0000     -10.338292      -281.3192 
  24   1.0000     -10.334164      -281.2069 
  25   1.0000     -10.332213      -281.1538 
  26   1.0000     -10.260725      -279.2085 
  27   1.0000      -1.322204       -35.9790 
  28   1.0000      -1.272699       -34.6319 
  29   1.0000      -1.268101       -34.5068 
  30   1.0000      -1.253556       -34.1110 
  31   1.0000      -1.249082       -33.9892 
  32   1.0000      -1.243550       -33.8387 
  33   1.0000      -1.238773       -33.7087 
  34   1.0000      -1.232384       -33.5349 
  35   1.0000      -1.226723       -33.3808 
  36   1.0000      -1.213306       -33.0157 
  37   1.0000      -1.211208       -32.9586 
  38   1.0000      -1.199698       -32.6455 
  39   1.0000      -1.194296       -32.4985 
  40   1.0000      -1.193824       -32.4856 
  41   1.0000      -1.185724       -32.2652 
  42   1.0000      -1.032841       -28.1050 
  43   1.0000      -0.968624       -26.3576 
  44   1.0000      -0.965906       -26.2836 
  45   1.0000      -0.945846       -25.7378 
  46   1.0000      -0.786595       -21.4043 
  47   1.0000      -0.779131       -21.2012 
  48   1.0000      -0.750111       -20.4116 
  49   1.0000      -0.722217       -19.6525 
  50   1.0000      -0.687016       -18.6947 
  51   1.0000      -0.657843       -17.9008 
  52   1.0000      -0.632285       -17.2054 
  53   1.0000      -0.607955       -16.5433 
  54   1.0000      -0.604751       -16.4561 
  55   1.0000      -0.602043       -16.3824 
  56   1.0000      -0.589181       -16.0324 
  57   1.0000      -0.580587       -15.7986 
  58   1.0000      -0.578569       -15.7437 
  59   1.0000      -0.570370       -15.5205 
  60   1.0000      -0.566051       -15.4030 
  61   1.0000      -0.556625       -15.1465 
  62   1.0000      -0.553588       -15.0639 
  63   1.0000      -0.551607       -15.0100 
  64   1.0000      -0.543275       -14.7833 
  65   1.0000      -0.534610       -14.5475 
  66   1.0000      -0.532406       -14.4875 
  67   1.0000      -0.522698       -14.2233 
  68   1.0000      -0.506376       -13.7792 
  69   1.0000      -0.491526       -13.3751 
  70   1.0000      -0.480495       -13.0749 
  71   1.0000      -0.479237       -13.0407 
  72   1.0000      -0.474945       -12.9239 
  73   1.0000      -0.460642       -12.5347 
  74   1.0000      -0.458373       -12.4730 
  75   1.0000      -0.456418       -12.4198 
  76   1.0000      -0.454873       -12.3777 
  77   1.0000      -0.450949       -12.2709 
  78   1.0000      -0.448892       -12.2150 
  79   1.0000      -0.446684       -12.1549 
  80   1.0000      -0.443247       -12.0614 
  81   1.0000      -0.442391       -12.0381 
  82   1.0000      -0.439854       -11.9690 
  83   1.0000      -0.433747       -11.8029 
  84   1.0000      -0.431361       -11.7379 
  85   1.0000      -0.424224       -11.5437 
  86   1.0000      -0.421362       -11.4658 
  87   1.0000      -0.420569       -11.4443 
  88   1.0000      -0.419630       -11.4187 
  89   1.0000      -0.416031       -11.3208 
  90   1.0000      -0.410326       -11.1655 
  91   1.0000      -0.408444       -11.1143 
  92   1.0000      -0.405843       -11.0436 
  93   1.0000      -0.402377       -10.9492 
  94   1.0000      -0.399789       -10.8788 
  95   1.0000      -0.398047       -10.8314 
  96   1.0000      -0.394659       -10.7392 
  97   1.0000      -0.389208       -10.5909 
  98   1.0000      -0.387098       -10.5335 
  99   1.0000      -0.375425       -10.2158 
 100   1.0000      -0.368013       -10.0142 
 101   1.0000      -0.353355        -9.6153 
 102   1.0000      -0.350879        -9.5479 
 103   1.0000      -0.344213        -9.3665 
 104   1.0000      -0.314898        -8.5688 
 105   1.0000      -0.281453        -7.6587 
 106   1.0000      -0.279084        -7.5943 
 107   1.0000      -0.257495        -7.0068 
 108   1.0000      -0.249092        -6.7781 
 109   1.0000      -0.245992        -6.6938 
 110   0.0000      -0.007661        -0.2085 
 111   0.0000       0.030223         0.8224 
 112   0.0000       0.046511         1.2656 
 113   0.0000       0.061150         1.6640 
 114   0.0000       0.063312         1.7228 
 115   0.0000       0.080516         2.1909 
 116   0.0000       0.082650         2.2490 
 117   0.0000       0.104430         2.8417 
 118   0.0000       0.112439         3.0596 
 119   0.0000       0.124508         3.3880 
 120   0.0000       0.135645         3.6911 
*Only the first 10 virtual orbitals were printed.

                    ********************************
                    * MULLIKEN POPULATION ANALYSIS *
                    ********************************

--------------------------------------------
MULLIKEN ATOMIC CHARGES AND SPIN POPULATIONS
--------------------------------------------
   0 C :    0.448324    0.061913
   1 C :    0.291741    0.118691
   2 C :    0.241757    0.222801
   3 C :    0.247576    0.250322
   4 C :    0.279216    0.164496
   5 C :    0.284927    0.078203
   6 C :    0.332547    0.032776
   7 C :    0.243045    0.014384
   8 F :   -0.176322   -0.000108
   9 F :   -0.176185   -0.000110
  10 F :   -0.186558    0.010583
  11 F :   -0.209982    0.002505
  12 F :   -0.209709    0.002495
  13 F :   -0.234688    0.004146
  14 F :   -0.233134    0.003994
  15 F :   -0.240234    0.004115
  16 F :   -0.236631    0.003774
  17 F :   -0.225366    0.001634
  18 F :   -0.225896    0.001879
  19 F :   -0.215496    0.000805
  20 F :   -0.215924    0.001387
  21 F :   -0.222391    0.000505
  22 F :   -0.225869    0.000836
  23 O :   -0.508557    0.008921
  24 O :   -0.514490    0.008894
  25 O :   -0.731818   -0.000015
  26 H :    0.324987   -0.000000
  27 H :    0.350829   -0.000034
  28 H :    0.347668   -0.000152
  29 O :   -0.726805   -0.000044
  30 H :    0.323438    0.000400
Sum of atomic charges         :   -2.0000000
Sum of atomic spin populations:    1.0000000

-----------------------------------------------------
MULLIKEN REDUCED ORBITAL CHARGES AND SPIN POPULATIONS
-----------------------------------------------------
CHARGE
  0 C s       :     3.045691  s :     3.045691
      pz      :     0.643344  p :     2.140826
      px      :     0.656006
      py      :     0.841476
      dz2     :     0.067532  d :     0.326253
      dxz     :     0.078040
      dyz     :     0.059008
      dx2y2   :     0.059663
      dxy     :     0.062010
      f0      :     0.007723  f :     0.038906
      f+1     :     0.004667
      f-1     :     0.005465
      f+2     :     0.007954
      f-2     :     0.003890
      f+3     :     0.003025
      f-3     :     0.006181

  1 C s       :     3.121152  s :     3.121152
      pz      :     0.741745  p :     2.284195
      px      :     0.643598
      py      :     0.898851
      dz2     :     0.051750  d :     0.276576
      dxz     :     0.061236
      dyz     :     0.047874
      dx2y2   :     0.062412
      dxy     :     0.053304
      f0      :     0.005629  f :     0.026336
      f+1     :     0.003933
      f-1     :     0.003469
      f+2     :     0.004630
      f-2     :     0.001512
      f+3     :     0.002352
      f-3     :     0.004810

  2 C s       :     3.145765  s :     3.145765
      pz      :     0.736990  p :     2.298835
      px      :     0.654624
      py      :     0.907221
      dz2     :     0.048905  d :     0.288227
      dxz     :     0.057040
      dyz     :     0.059204
      dx2y2   :     0.072001
      dxy     :     0.051077
      f0      :     0.005210  f :     0.025416
      f+1     :     0.003612
      f-1     :     0.003157
      f+2     :     0.004734
      f-2     :     0.001683
      f+3     :     0.002221
      f-3     :     0.004800

  3 C s       :     3.141218  s :     3.141218
      pz      :     0.760626  p :     2.299303
      px      :     0.658494
      py      :     0.880183
      dz2     :     0.050104  d :     0.286709
      dxz     :     0.056019
      dyz     :     0.057172
      dx2y2   :     0.073207
      dxy     :     0.050206
      f0      :     0.005198  f :     0.025194
      f+1     :     0.003650
      f-1     :     0.003162
      f+2     :     0.004624
      f-2     :     0.001595
      f+3     :     0.002211
      f-3     :     0.004756

  4 C s       :     3.139776  s :     3.139776
      pz      :     0.742751  p :     2.273314
      px      :     0.640520
      py      :     0.890043
      dz2     :     0.050756  d :     0.281737
      dxz     :     0.059484
      dyz     :     0.053250
      dx2y2   :     0.066596
      dxy     :     0.051650
      f0      :     0.005518  f :     0.025958
      f+1     :     0.003711
      f-1     :     0.003317
      f+2     :     0.004738
      f-2     :     0.001607
      f+3     :     0.002226
      f-3     :     0.004840

  5 C s       :     3.156653  s :     3.156653
      pz      :     0.730888  p :     2.256168
      px      :     0.614065
      py      :     0.911215
      dz2     :     0.051011  d :     0.275489
      dxz     :     0.058805
      dyz     :     0.051159
      dx2y2   :     0.060012
      dxy     :     0.054502
      f0      :     0.005330  f :     0.026762
      f+1     :     0.003571
      f-1     :     0.003148
      f+2     :     0.005379
      f-2     :     0.002072
      f+3     :     0.002285
      f-3     :     0.004977

  6 C s       :     3.130386  s :     3.130386
      pz      :     0.716648  p :     2.258909
      px      :     0.577403
      py      :     0.964858
      dz2     :     0.046601  d :     0.251954
      dxz     :     0.055659
      dyz     :     0.044948
      dx2y2   :     0.051702
      dxy     :     0.053043
      f0      :     0.004731  f :     0.026204
      f+1     :     0.004052
      f-1     :     0.002544
      f+2     :     0.004971
      f-2     :     0.002849
      f+3     :     0.002587
      f-3     :     0.004470

  7 C s       :     3.062448  s :     3.062448
      pz      :     0.804126  p :     2.417477
      px      :     0.718242
      py      :     0.895109
      dz2     :     0.029933  d :     0.251921
      dxz     :     0.054834
      dyz     :     0.021967
      dx2y2   :     0.070378
      dxy     :     0.074809
      f0      :     0.001886  f :     0.025109
      f+1     :     0.003095
      f-1     :     0.001810
      f+2     :     0.003859
      f-2     :     0.002989
      f+3     :     0.006583
      f-3     :     0.004887

  8 F s       :     3.908428  s :     3.908428
      pz      :     1.552104  p :     5.251045
      px      :     1.857579
      py      :     1.841362
      dz2     :     0.005753  d :     0.016110
      dxz     :     0.003863
      dyz     :     0.004570
      dx2y2   :     0.001006
      dxy     :     0.000919
      f0      :     0.000180  f :     0.000739
      f+1     :     0.000167
      f-1     :     0.000201
      f+2     :     0.000079
      f-2     :     0.000092
      f+3     :     0.000009
      f-3     :     0.000011

  9 F s       :     3.908480  s :     3.908480
      pz      :     1.893421  p :     5.250853
      px      :     1.455571
      py      :     1.901861
      dz2     :     0.002327  d :     0.016113
      dxz     :     0.003279
      dyz     :     0.000177
      dx2y2   :     0.006741
      dxy     :     0.003589
      f0      :     0.000060  f :     0.000740
      f+1     :     0.000153
      f-1     :     0.000011
      f+2     :     0.000101
      f-2     :     0.000007
      f+3     :     0.000252
      f-3     :     0.000155

[...]

 20 F s       :     0.001164  s :     0.001164
      pz      :     0.000867  p :     0.002200
      px      :     0.001447
      py      :    -0.000113
      dz2     :     0.000182  d :     0.000399
      dxz     :     0.000077
      dyz     :     0.000069
      dx2y2   :     0.000011
      dxy     :     0.000060
      f0      :     0.000000  f :     0.000016
      f+1     :     0.000005
      f-1     :    -0.000000
      f+2     :     0.000001
      f-2     :     0.000003
      f+3     :     0.000001
      f-3     :     0.000005

 21 F s       :     0.000350  s :     0.000350
      pz      :    -0.000560  p :     0.001137
      px      :     0.001520
      py      :     0.000176
      dz2     :     0.000118  d :     0.000281
      dxz     :     0.000065
      dyz     :     0.000002
      dx2y2   :     0.000014
      dxy     :     0.000082
      f0      :     0.000008  f :     0.000013
      f+1     :    -0.000000
      f-1     :    -0.000000
      f+2     :    -0.000000
      f-2     :     0.000004
      f+3     :     0.000001
      f-3     :     0.000001

 22 F s       :     0.000751  s :     0.000751
      pz      :    -0.000047  p :     0.001195
      px      :     0.001262
      py      :    -0.000020
      dz2     :     0.000116  d :     0.000214
      dxz     :     0.000016
      dyz     :     0.000024
      dx2y2   :     0.000008
      dxy     :     0.000050
      f0      :    -0.000000  f :     0.000010
      f+1     :     0.000005
      f-1     :     0.000001
      f+2     :     0.000000
      f-2     :    -0.000000
      f+3     :     0.000000
      f-3     :     0.000004

 23 O s       :     0.000199  s :     0.000199
      pz      :     0.007904  p :     0.008292
      px      :     0.001215
      py      :    -0.000827
      dz2     :     0.000254  d :     0.000540
      dxz     :     0.000062
      dyz     :     0.000214
      dx2y2   :     0.000022
      dxy     :    -0.000013
      f0      :    -0.000001  f :     0.000042
      f+1     :     0.000017
      f-1     :     0.000016
      f+2     :     0.000001
      f-2     :     0.000006
      f+3     :    -0.000001
      f-3     :     0.000005

 24 O s       :     0.000174  s :     0.000174
      pz      :     0.007437  p :     0.008353
      px      :     0.001526
      py      :    -0.000611
      dz2     :     0.000036  d :     0.000533
      dxz     :     0.000379
      dyz     :     0.000067
      dx2y2   :     0.000050
      dxy     :     0.000002
      f0      :     0.000014  f :     0.000040
      f+1     :     0.000004
      f-1     :     0.000001
      f+2     :     0.000012
      f-2     :     0.000010
      f+3     :    -0.000003
      f-3     :     0.000003

 25 O s       :    -0.000003  s :    -0.000003
      pz      :    -0.000009  p :    -0.000020
      px      :    -0.000005
      py      :    -0.000006
      dz2     :    -0.000000  d :    -0.000000
      dxz     :    -0.000000
      dyz     :     0.000000
      dx2y2   :    -0.000000
      dxy     :     0.000000
      f0      :     0.000000  f :     0.000000
      f+1     :    -0.000000
      f-1     :     0.000000
      f+2     :     0.000000
      f-2     :     0.000000
      f+3     :    -0.000000
      f-3     :     0.000000

 26 H s       :    -0.000002  s :    -0.000002
      pz      :     0.000000  p :    -0.000000
      px      :    -0.000001
      py      :     0.000001

 27 H s       :    -0.000030  s :    -0.000030
      pz      :    -0.000006  p :    -0.000010
      px      :    -0.000002
      py      :    -0.000002

 28 H s       :    -0.000025  s :    -0.000025
      pz      :     0.000005  p :    -0.000016
      px      :    -0.000023
      py      :     0.000002

 29 O s       :     0.000004  s :     0.000004
      pz      :    -0.000009  p :    -0.000016
      px      :    -0.000025
      py      :     0.000019
      dz2     :    -0.000000  d :     0.000001
      dxz     :    -0.000001
      dyz     :     0.000001
      dx2y2   :     0.000001
      dxy     :     0.000000
      f0      :    -0.000000  f :     0.000000
      f+1     :     0.000000
      f-1     :     0.000000
      f+2     :    -0.000000
      f-2     :     0.000000
      f+3     :     0.000000
      f-3     :     0.000000

 30 H s       :     0.000196  s :     0.000196
      pz      :     0.000003  p :     0.000018
      px      :    -0.000001
      py      :     0.000016



                      *****************************
                      * MAYER POPULATION ANALYSIS *
                      *****************************

  NA   - Mulliken gross atomic population
  ZA   - Total nuclear charge
  QA   - Mulliken gross atomic charge
  VA   - Mayer's total valence
  BVA  - Mayer's bonded valence
  FA   - Mayer's free valence

  ATOM       NA         ZA         QA         VA         BVA        FA
  0 C      5.5514     6.0000     0.4486     4.5190     4.5143     0.0046
  1 C      5.7084     6.0000     0.2916     4.1270     4.1064     0.0207
  2 C      5.7576     6.0000     0.2424     4.0472     3.9807     0.0664
  3 C      5.7529     6.0000     0.2471     4.0519     3.9681     0.0837
  4 C      5.7212     6.0000     0.2788     4.0612     4.0225     0.0388
  5 C      5.7144     6.0000     0.2856     3.9797     3.9705     0.0093
  6 C      5.6681     6.0000     0.3319     3.9024     3.9010     0.0015
  7 C      5.7571     6.0000     0.2429     4.4529     4.4525     0.0004
  8 F      9.1763     9.0000    -0.1763     1.1254     1.1254     0.0000
  9 F      9.1762     9.0000    -0.1762     1.1256     1.1256     0.0000
 10 F      9.1862     9.0000    -0.1862     1.1010     1.1008     0.0002
 11 F      9.2099     9.0000    -0.2099     1.0724     1.0724     0.0000
 12 F      9.2096     9.0000    -0.2096     1.0729     1.0728     0.0000
 13 F      9.2346     9.0000    -0.2346     1.0329     1.0327     0.0002
 14 F      9.2330     9.0000    -0.2330     1.0358     1.0357     0.0002
 15 F      9.2402     9.0000    -0.2402     1.0206     1.0204     0.0002
 16 F      9.2368     9.0000    -0.2368     1.0257     1.0256     0.0002
 17 F      9.2253     9.0000    -0.2253     1.0489     1.0489     0.0001
 18 F      9.2261     9.0000    -0.2261     1.0466     1.0465     0.0001
 19 F      9.2158     9.0000    -0.2158     1.0750     1.0750     0.0000
 20 F      9.2159     9.0000    -0.2159     1.0768     1.0768     0.0000
 21 F      9.2227     9.0000    -0.2227     1.0603     1.0603     0.0000
 22 F      9.2257     9.0000    -0.2257     1.0536     1.0536     0.0000
 23 O      8.5084     8.0000    -0.5084     1.9399     1.9398     0.0001
 24 O      8.5144     8.0000    -0.5144     1.9337     1.9336     0.0001
 25 O      8.7317     8.0000    -0.7317     1.7257     1.7257     0.0000
 26 H      0.6753     1.0000     0.3247     0.9083     0.9083     0.0000
 27 H      0.6492     1.0000     0.3508     0.9527     0.9527     0.0000
 28 H      0.6525     1.0000     0.3475     0.9612     0.9612     0.0000
 29 O      8.7269     8.0000    -0.7269     1.7449     1.7449     0.0000
 30 H      0.6765     1.0000     0.3235     0.9190     0.9190     0.0000

  Mayer bond orders larger than 0.100000
B(  0-C ,  1-C ) :   0.9596 B(  0-C ,  8-F ) :   1.1376 B(  0-C ,  9-F ) :   1.1378 
B(  0-C , 10-F ) :   1.0966 B(  1-C ,  2-C ) :   0.9117 B(  1-C , 11-F ) :   1.0365 
B(  1-C , 12-F ) :   1.0360 B(  2-C ,  3-C ) :   0.9096 B(  2-C , 13-F ) :   0.9997 
B(  2-C , 14-F ) :   1.0011 B(  3-C ,  4-C ) :   0.9083 B(  3-C , 15-F ) :   0.9862 
B(  3-C , 16-F ) :   0.9912 B(  4-C ,  5-C ) :   0.8802 B(  4-C , 17-F ) :   1.0187 
B(  4-C , 18-F ) :   1.0170 B(  5-C ,  6-C ) :   0.8732 B(  5-C , 19-F ) :   1.0361 
B(  5-C , 20-F ) :   1.0485 B(  6-C ,  7-C ) :   0.9008 B(  6-C , 21-F ) :   1.0348 
B(  6-C , 22-F ) :   1.0323 B(  7-C , 23-O ) :   1.7341 B(  7-C , 24-O ) :   1.7341 
B( 23-O , 28-H ) :   0.1257 B( 24-O , 27-H ) :   0.1180 B( 25-O , 26-H ) :   0.9036 
B( 25-O , 27-H ) :   0.8188 B( 28-H , 29-O ) :   0.8244 B( 29-O , 30-H ) :   0.9045 


-------
TIMINGS
-------

Total SCF time: 0 days 0 hours 0 min 52 sec 

Total time                  ....      52.736 sec
Sum of individual times     ....      51.563 sec  ( 97.8%)

SCF preparation             ....       1.368 sec  (  2.6%)
Fock matrix formation       ....      43.650 sec  ( 82.8%)
  Startup                   ....       0.239 sec  (  0.5% of F)
  Split-RI-J                ....       2.766 sec  (  6.3% of F)
  Chain of spheres X        ....      32.100 sec  ( 73.5% of F)
  XC integration            ....       5.428 sec  ( 12.4% of F)
    Basis function eval.    ....       0.519 sec  (  9.6% of XC)
    Density eval.           ....       1.185 sec  ( 21.8% of XC)
    XC-Functional eval.     ....       0.050 sec  (  0.9% of XC)
    XC-Potential eval.      ....       1.153 sec  ( 21.2% of XC)
  CPCM terms                ....       2.604 sec  (  6.0% of F)
Diagonalization             ....       0.000 sec  (  0.0%)
Density matrix formation    ....       0.592 sec  (  1.1%)
Total Energy calculation    ....       0.346 sec  (  0.7%)
Population analysis         ....       0.571 sec  (  1.1%)
Orbital Transformation      ....       0.693 sec  (  1.3%)
Orbital Orthonormalization  ....       0.000 sec  (  0.0%)
DIIS solution               ....       0.885 sec  (  1.7%)
SOSCF solution              ....       3.459 sec  (  6.6%)
Finished LeanSCF after  53.2 sec

Maximum memory used throughout the entire LEANSCF-calculation: 128.0 MB


-------------------------------------------------------------------------------
                          DFT DISPERSION CORRECTION                            
                                                                               
                              DFTD3 V3.1  Rev 1                                
                          USING Becke-Johnson damping                          
-------------------------------------------------------------------------------
The B3LYP functional is recognized
Active option DFTDOPT                   ...         4   

molecular C6(AA) [au] = 8952.687679 


            DFT-D V3
 parameters
 s6 scaling factor         :     1.0000 
 a1 scaling factor         :     0.3981 
 s8 scaling factor         :     1.9889 
 a2 scaling factor         :     4.4211 
 ad hoc parameters k1-k3   :    16.0000     1.3333    -4.0000 

 Edisp/kcal,au: -30.859654383614  -0.049177984345 
 E6   /kcal   : -14.944754521 
 E8   /kcal   : -15.914899863 
 % E8         :  51.571866830 

-------------------------   ----------------
Dispersion correction           -0.049177984
-------------------------   ----------------


-------------------------   --------------------
FINAL SINGLE POINT ENERGY     -2106.129162950499
-------------------------   --------------------

                                *** OPTIMIZATION RUN DONE ***



           ************************************************************
           *        Program running with 20 parallel MPI-processes    *
           *              working on a common directory               *
           ************************************************************

------------------------------------------------------------------------------
                              ORCA PROPERTY CALCULATIONS
------------------------------------------------------------------------------

GBWName                                 ... rf_mecn_2H2O_opt_B3L_sw_004.gbw
Number of atoms                         ...     31
Number of basis functions               ...    861
Max core memory                         ...   8000 MB

Electric properties:
Dipole moment                           ... YES
Quadrupole moment                       ...  NO
Static polarizability (Dipole/Dipole)   ...  NO
Static polarizability (Dipole/Quad.)    ...  NO
Static polarizability (Quad./Quad.)     ...  NO
Static polarizability (Velocity)        ...  NO

Atomic electric properties:
Dipole moment                           ...  NO
Quadrupole moment                       ...  NO
Static polarizability                   ...  NO

Choice of electric origin               ... Center of mass
Position of electric origin             ...    13.200237    43.633502     3.301308

General magnetic properties:
Magnetizability                         ...  NO

EPR properties:
g-Tensor (aka g-matrix)                 ...  NO
Zero-Field splitting spin-orbit         ...  NO
Zero-field splitting spin-spin          ...  NO
Hyperfine couplings                     ...  NO (   0 nuclei)
Quadrupole couplings                    ...  NO (   0 nuclei)
Contact density                         ...  NO (   0 nuclei)

NMR properties:
Chemical shifts                         ...  NO (   0 nuclei)
Spin-rotation constants                 ...  NO (   0 nuclei)
Spin-spin couplings                     ...  NO (   0 nuclei,    0 pairs)

Choice of magnetic origin               ... GIAO
Position of magnetic origin             ...     0.000000     0.000000     0.000000

Properties with geometric perturbations:
SCF Hessian                             ...  NO
IR spectrum                             ...  NO
VCD spectrum                            ...  NO
X-ray spectroscopy properties:
SCF XES/XAS/RIXS spectra                ...  NO


-------------
DIPOLE MOMENT
-------------

Method             : SCF
Type of density    : Electron Density
Multiplicity       :   2
Irrep              :   0
Energy             : -2106.0799849661543703 Eh
Relativity type    : 
Basis              : AO
                                X                 Y                 Z
Electronic contribution:      2.804459014      37.982689611       7.304651638
Nuclear contribution   :     -2.735211385     -31.178427327      -6.133348561
                        -----------------------------------------
Total Dipole Moment    :      0.069247629       6.804262284       1.171303077
                        -----------------------------------------
Magnitude (a.u.)       :      6.904689086
Magnitude (Debye)      :     17.550324908



--------------------
Rotational spectrum 
--------------------
 
Rotational constants in cm-1:             0.013455             0.002922             0.002713 
Rotational constants in MHz :           403.377142            87.584395            81.343209 

Dipole components along the rotational axes: 
x,y,z [a.u.] :    -6.865077    -0.539022     0.504883 
x,y,z [Debye]:   -17.449639    -1.370086     1.283310 

 

Dipole moment calculation done in   0.2 sec 

Maximum memory used throughout the entire PROP-calculation: 68.4 MB

--------------------------------
SUGGESTED CITATIONS FOR THIS RUN
--------------------------------

Below you find a list of papers that are relevant to this ORCA run
We neither can nor want to force you to cite these papers, but we appreciate if you do
You receive ORCA, which is the product of decades of hard work by many enthusiastic individuals, for free
The only thing we kindly ask in return is that you cite our papers,
We deeply appreciate it, if you show your appreciation for ORCA by not just citing the generic ORCA reference.

Please note that relegating all ORCA citations to the supporting information does *not* help us.
SI sections are not indexed - citations you put there will not count into any citation statistics
But we need these citations in order to attract the funding resources that allow us to do what we are doing

Therefore, if you are a happy ORCA user, please consider citing a few of the papers listed below in the main body of your paper

In addition to the list printed below, the program has created the file rf_mecn_2H2O_opt_B3L_sw_004.bibtex that contains the list in bibtex format
You can import this file easily into all common literature databanks and citation aid programs


List of essential papers. We consider these as the minimum necessary citations

  1. Neese,F.
     Software update: the ORCA program system, version 5.0
     WIRES Comput. Molec. Sci., 2022 12(1)e1606
     doi.org/10.1002/wcms.1606

List of papers to cite with high priority. The work reported in these papers was absolutely
necessary for this run to complete.
Our perspective: the developers of density functionals and basis sets usually get cited in chemistry papers
Good! But without the algorithms to do something with them, the functionals or basis sets would not do anything.
Hence, in our opinion, the algorithm design and method developments papers are equally worthy of getting cited

  1. Neese,F.
     An improvement of the resolution of the identity approximation for the formation of the Coulomb matrix
     J. Comp. Chem., 2003 24(14)1740-1747
     doi.org/10.1002/jcc.10318
  2. Neese,F.; Wennmohs,F.; Hansen,A.; Becker,U.
     Efficient, approximate and parallel Hartree-Fock and hybrid DFT calculations. A 'chain-of-spheres' algorithm for the Hartree-Fock exchange
     Chem. Phys., 2009 356(1-3)98-109
     doi.org/10.1016/j.chemphys.2008.10.036
  3. Garcia-Rates,M.; Neese,F.
     Effect of the Solute Cavity on the Solvation Energy and its Derivatives within the Framework of the Gaussian Charge Scheme
     J. Comput. Chem., 2020 41 922-939
     doi.org/10.1002/jcc.26139
  4. Helmich-Paris,B.; de Souza,B.; Neese,F.; Izsák,R.
     An improved chain of spheres for exchange algorithm
     J. Chem. Phys., 2021 155 104109
     doi.org/doi: 10.1063/5.0058766.
  5. Neese,F.
     The SHARK Integral Generation and Digestion System
     J. Comp. Chem., 2022  1-16
     doi.org/10.1002/jcc.26942
  6. Grimme,S.; Antony,J.; Ehrlich,S.; Krieg,H.
     A consistent and accurate ab initio parametrization of density functional dispersion correction (DFT-D) for the 94 elements H-Pu
     J. Chem. Phys., 2010 132 154104
     doi.org/10.1063/1.3382344
  7. Grimme,S.; Ehrlich,S.; Goerigk,L.
     Effect of the damping function in dispersion corrected density functional theory
     J. Comput. Chem., 2011 32(7)1456-1465
     doi.org/10.1002/jcc.21759

List of suggested additional citations. These are papers that are important in the 'surrounding' of 
of this run, or papers that preceded the highly important papers. If you like your results we are grateful for a citation.

  1. Izsak,R.; Neese,F.
     An overlap fitted chain of spheres exchange method
     J. Chem. Phys., 2011 135 144105
     doi.org/10.1063/1.3646921
  2. Izsak,R.; Hansen,A.; Neese,F.
     The resolution of identity and chain of spheres approximations for the LPNO-CCSD singles Fock term
     Molec. Phys., 2012 110 2413-2417
     doi.org/10.1080/00268976.2012.687466
  3. Neese,F.
     The ORCA program system
     WIRES Comput. Molec. Sci., 2012 2(1)73-78
     doi.org/10.1002/wcms.81
  4. Izsak,R.; Neese,F.; Klopper,W.
     Robust fitting techniques in the chain of spheres approximation to the Fock exchange: The role of the complementary space
     J. Chem. Phys., 2013 139 
     doi.org/10.1063/1.4819264
  5. Neese,F.
     Software update: the ORCA program system, version 4.0
     WIRES Comput. Molec. Sci., 2018 8(1)1-6
     doi.org/10.1002/wcms.1327
  6. Neese,F.; Wennmohs,F.; Becker,U.; Riplinger,C.
     The ORCA quantum chemistry program package
     J. Chem. Phys., 2020 152 Art. No. L224108
     doi.org/10.1063/5.0004608

List of optional additional citations

  1. Neese,F.
     Approximate second-order SCF convergence for spin unrestricted wavefunctions
     Chem. Phys. Lett., 2000 325(1-3)93-98
     doi.org/10.1016/s0009-2614(00)00662-x

Timings for individual modules:

Sum of individual times          ...      796.956 sec (=  13.283 min)
Startup calculation              ...       35.561 sec (=   0.593 min)   4.5 %
SCF iterations                   ...      548.180 sec (=   9.136 min)  68.8 %
Property calculations            ...        1.514 sec (=   0.025 min)   0.2 %
SCF Gradient evaluation          ...      211.447 sec (=   3.524 min)  26.5 %
Geometry relaxation              ...        0.253 sec (=   0.004 min)   0.0 %
                             ****ORCA TERMINATED NORMALLY****
TOTAL RUN TIME: 0 days 0 hours 13 minutes 22 seconds 656 msec
