
                                 *****************
                                 * O   R   C   A *
                                 *****************

                                            #,                                       
                                            ###                                      
                                            ####                                     
                                            #####                                    
                                            ######                                   
                                           ########,                                 
                                     ,,################,,,,,                         
                               ,,#################################,,                 
                          ,,##########################################,,             
                       ,#########################################, ''#####,          
                    ,#############################################,,   '####,        
                  ,##################################################,,,,####,       
                ,###########''''           ''''###############################       
              ,#####''   ,,,,##########,,,,          '''####'''          '####       
            ,##' ,,,,###########################,,,                        '##       
           ' ,,###''''                  '''############,,,                           
         ,,##''                                '''############,,,,        ,,,,,,###''
      ,#''                                            '''#######################'''  
     '                                                          ''''####''''         
             ,#######,   #######,   ,#######,      ##                                
            ,#'     '#,  ##    ##  ,#'     '#,    #''#        ,####,   ,####,        
            ##       ##  ##   ,#'  ##            #'  '#       #'       #'  '#        
            ##       ##  #######   ##           ,######,      #####,   #    #        
            '#,     ,#'  ##    ##  '#,     ,#' ,#      #,     #,   #   #,  ,#        
             '#######'   ##     ##  '#######'  #'      '#     '####' # '####'        



                #########################################################
                #                        -***-                          #
                #          Department of theory and spectroscopy        #
                #                                                       #
                #                      Frank Neese                      #
                #                                                       #
                #     Directorship, Architecture, Infrastructure        #
                #                    SHARK, DRIVERS                     #
                #        Core code/Algorithms in most modules           #
                #                                                       #
                #        Max Planck Institute fuer Kohlenforschung      #
                #                Kaiser Wilhelm Platz 1                 #
                #                 D-45470 Muelheim/Ruhr                 #
                #                      Germany                          #
                #                                                       #
                #                  All rights reserved                  #
                #                        -***-                          #
                #########################################################


                         Program Version 6.0.1  -  RELEASE   -


 With contributions from (in alphabetic order):
[Max-Planck-Institut fuer Kohlenforschung]                               
  Daniel Aravena         : Magnetic Suceptibility                        
  Michael Atanasov       : Ab Initio Ligand Field Theory (pilot matlab implementation)
  Alexander A. Auer      : GIAO ZORA, VPT2 properties, NMR spectrum      
  Ute Becker             : All parallelization in ORCA, NUMFREQ, NUMCALC 
  Giovanni Bistoni       : ED, misc. LED, open-shell LED, HFLD           
  Martin Brehm           : Molecular dynamics                            
  Dmytro Bykov           : pre 5.0 version of the SCF Hessian            
  Marcos Casanova-Páez   : Triplet and SCS-CIS(D). UHF-(DLPNO)-IP/EA/STEOM-CCSD. UHF-CVS-IP/STEOM-CCSD   
  Vijay G. Chilkuri      : MRCI spin determinant printing, contributions to CSF-ICE 
  Pauline Colinet        : FMM embedding                                 
  Dipayan Datta          : RHF DLPNO-CCSD density                        
  Achintya Kumar Dutta   : EOM-CC, STEOM-CC                              
  Nicolas Foglia         : Exact transition moments, OPA infrastructure, MCD improvements    
  Dmitry Ganyushin       : Spin-Orbit,Spin-Spin,Magnetic field MRCI      
  Miquel Garcia-Rates    : C-PCM and meta-GGA Hessian, CCSD/C-PCM, Gaussian charge scheme 
  Tiago L. C. Gouveia    : GS-ROHF, GS-ROCIS                             
  Yang Guo               : DLPNO-NEVPT2, F12-NEVPT2, CIM, IAO-localization        
  Andreas Hansen         : Spin unrestricted coupled pair/coupled cluster methods 
  Ingolf Harden          : AUTO-CI MPn and infrastructure                
  Benjamin Helmich-Paris : MC-RPA, TRAH-(SCF,CASSCF), AVAS, COSX integrals, SCF dyn. polar. 
  Lee Huntington         : MR-EOM, pCC                                   
  Robert Izsak           : Overlap fitted RIJCOSX, COSX-SCS-MP3, EOM     
  Riya Kayal             : Wick's Theorem for AUTO-CI, AUTO-CI UHF-CCSDT 
  Emily Kempfer          : AUTO-CI, RHF CISDT and CCSDT                  
  Christian Kollmar      : KDIIS, OOCD, Brueckner-CCSD(T), CCSD density, CASPT2, CASPT2-K, improved NEVPT2 
  Axel Koslowski         : Symmetry handling                             
  Simone Kossmann        : meta-GGA functionals, TD-DFT gradient, OOMP2, (MP2 Hessian; deprecated post 5.0) 
  Lucas Lang             : DCDCAS                                        
  Marvin Lechner         : AUTO-CI (C++ implementation), FIC-MRCC        
  Spencer Leger          : CASSCF response                               
  Dagmar Lenk            : GEPOL surface, SMD, ORCA-2-JSON               
  Dimitrios Liakos       : Extrapolation schemes; Compound Job, initial MDCI parallelization 
  Dimitrios Manganas     : Further ROCIS development; embedding schemes. LFT, Crystal Embedding 
  Dimitrios Pantazis     : SARC Basis sets                               
  Anastasios Papadopoulos: AUTO-CI, single reference methods and gradients 
  Taras Petrenko         : pre 6.0 DFT Hessian and TD-DFT gradient, (ASA, deprecated), ECA, 1-Electron XAS/XES, NRVS 
  Peter Pinski           : DLPNO-MP2, DLPNO-MP2 Gradient                 
  Christoph Reimann      : Effective Core Potentials                     
  Marius Retegan         : Local ZFS, SOC                                
  Christoph Riplinger    : Optimizer, TS searches, QM/MM, DLPNO-CCSD(T), (RO)-DLPNO pert. Triples 
  Michael Roemelt        : Original ROCIS implementation                 
  Masaaki Saitow         : Open-shell DLPNO-CCSD energy and density      
  Barbara Sandhoefer     : DKH picture change effects                    
  Kantharuban Sivalingam : CASSCF convergence/infrastructure, NEVPT2 and variants, FIC-MRCI 
  Bernardo de Souza      : ESD, SOC TD-DFT                               
  Georgi L. Stoychev     : AutoAux, RI-MP2 NMR, DLPNO-MP2 response, X2C  
  Van Anh Tran           : RI-MP2 g-tensors                              
  Willem Van den Heuvel  : Paramagnetic NMR                              
  Zikuan Wang            : NOTCH, Electric field optimization            
  Frank Wennmohs         : Technical directorship and infrastructure     
  Hang Xu                : AUTO-CI-Response properties                   
                                                                         
[FACCTs GmbH]                                                            
  Markus Bursch, Miquel Garcia-Rates, Christoph Riplinger, Bernardo de Souza, Georgi L. Stoychev 
                                                                 
  APM, Basis sets (HGBS, AHGBS, def-TZVP (Ac-Lr), def2-XVPD (La-Lu)), CI-OPT, improved COSX, DLPNO-Multilevel,           
  DOCKER, DRACO, updates on ESD, GOAT, IRC, LR-CPCM, MBIS, meta-GGA TD-DFT gradient, ML-optimized integration grids, 
  MM, NACMEs, nearIR, NEB, NEB-TS, NL-DFT gradient (VV10), 2- and 3-layer-ONIOM, interface openCOSMO-RS, QMMM,   
  Crystal-QMMM, SF, symmetry and pop. for TD-DFT, r2SCAN hybrids, SOLVATOR                                   
                                                                         
[Other institutions]                                                     
  V. Asgeirsson          : NEB                                           
  Christoph Bannwarth    : sTDA-DFT, sTD-DFT, PBEh-3c, B97-3c, D3        
  Sebastian Ehlert       : rSCAN, r2SCAN, r2SCAN-3c, D4, dhf basis sets  
  Marvin Friede          : D4 for Fr, Ra, Ac-Lr                          
  Lars Goerigk           : TD-DFT with DH, B97 family of functionals     
  Stefan Grimme          : VdW corrections, initial TS optimization, DFT functionals, gCP, sTDA/sTD-DF 
  Waldemar Hujo          : DFT-NL                                        
  H. Jonsson             : NEB                                           
  Holger Kruse           : gCP                                           
  Marcel Mueller         : wB97X-3c, vDZP basis set                      
  Hagen Neugebauer       : wr2SCAN                                       
  Tobias Risthaus        : range-separated hybrid DFT                    
  Lukas Wittmann         : regularized MP2, r2SCAN double-hybrids, wr2SCAN        
                                                                         
We gratefully acknowledge several colleagues who have allowed us to      
interface, adapt or use parts of their codes:                            
  Ed Valeev, F. Pavosevic, A. Kumar             : LibInt (2-el integral package), F12 methods 
  Garnet Chan, S. Sharma, J. Yang, R. Olivares  : DMRG                   
  Ulf Ekstrom                                   : XCFun DFT Library      
  Mihaly Kallay                                 : mrcc  (arbitrary order and MRCC methods)
  Frank Weinhold                                : gennbo (NPA and NBO analysis)           
  Simon Mueller                                 : openCOSMO-RS                            
  Christopher J. Cramer and Donald G. Truhlar   : smd solvation model                     
  S Lehtola, MJT Oliveira, MAL Marques          : LibXC Library                           
  Liviu Ungur et al                             : ANISO software                          


 Your calculation uses the libint2 library for the computation of 2-el integrals
 For citations please refer to: http://libint.valeyev.net

 Your ORCA version has been built with support for libXC version: 6.2.2
 For citations please refer to: https://libxc.gitlab.io

 This ORCA versions uses:
   CBLAS   interface :  Fast vector & matrix operations
   LAPACKE interface :  Fast linear algebra routines
   SCALAPACK package :  Parallel linear algebra routines
   Shared memory     :  Shared parallel matrices
   BLAS/LAPACK       :  OpenBLAS 0.3.27  USE64BITINT DYNAMIC_ARCH NO_AFFINITY SkylakeX SINGLE_THREADED
        Core in use  :  SkylakeX
   Copyright (c) 2011-2014, The OpenBLAS Project


NOTE: MaxCore=8000 MB was set to SCF,MP2,MDCI,CIPSI,MRCI and CIS
      => If you want to overwrite this, your respective input block should be placed after the MaxCore statement
Your calculation utilizes the atom-pairwise dispersion correction
with the Becke-Johnson damping scheme (D3BJ)


Your calculation utilizes the SMD solvation module
Please cite in your paper:
A.V. Marenich, C.J. Cramer, D.G. Truhlar J. Phys. Chem. B, 113, (2009), 6378 

Warning: RI is on but no J-basis has been assigned. Assigning Def2/J (nothing to worry about!)
================================================================================

----- Orbital basis set information -----
Your calculation utilizes the basis: def2-TZVP
   F. Weigend and R. Ahlrichs, Phys. Chem. Chem. Phys. 7, 3297 (2005).

----- AuxJ basis set information -----
Your calculation utilizes the auxiliary basis: def2/J
   F. Weigend, Phys. Chem. Chem. Phys. 8, 1057 (2006).

================================================================================
                                        WARNINGS
                       Please study these warnings very carefully!
================================================================================


WARNING: your system is open-shell and RHF/RKS was chosen
  ===> : WILL SWITCH to UHF/UKS


================================================================================
                                       INPUT FILE
================================================================================
NAME = rf_mecn_1H2O_freq_TP_con_02.inp
|  1> !TPSSh def2-TZVP freq d3 TightSCF SlowConv defgrid2
|  2>  
|  3> %pal
|  4> nprocs 20
|  5> end
|  6>  
|  7> %scf
|  8> MaxIter 1500
|  9> end
| 10>  
| 11> %maxcore 8000
| 12>  
| 13> !CPCM
| 14> %cpcm smd true
| 15> SMDsolvent "ACETONITRILE"
| 16> end
| 17>  
| 18> * xyz -1 2
| 19> 6        7.945172000     27.278987000      3.003814000
| 20> 6        6.647486000     26.736739000      2.323956000
| 21> 6        6.706563000     25.226105000      1.926464000
| 22> 6        5.319457000     24.558856000      1.634070000
| 23> 6        5.415929000     23.221888000      0.959437000
| 24> 6        5.541775000     21.861991000      1.576197000
| 25> 6        6.719188000     21.004001000      1.026500000
| 26> 6        7.049055000     19.752395000      1.927438000
| 27> 9        9.025410000     26.967741000      2.279603000
| 28> 9        8.087954000     26.778749000      4.232961000
| 29> 9        7.860662000     28.610494000      3.095382000
| 30> 9        5.623938000     26.946754000      3.180252000
| 31> 9        6.434622000     27.468769000      1.210506000
| 32> 9        7.463176000     25.119363000      0.809361000
| 33> 9        7.305794000     24.528914000      2.917424000
| 34> 9        4.647264000     24.443573000      2.804094000
| 35> 9        4.628482000     25.404185000      0.819317000
| 36> 9        5.491616000     23.266671000     -0.365597000
| 37> 9        5.718019000     22.000274000      2.920231000
| 38> 9        4.375904000     21.168527000      1.389396000
| 39> 9        6.405792000     20.618906000     -0.248843000
| 40> 9        7.795155000     21.844628000      0.920217000
| 41> 8        8.072134000     19.846101000      2.614908000
| 42> 8        6.211668000     18.826428000      1.830982000
| 43> 8        4.216648000     18.063593000      0.089421000
| 44> 1        4.666040000     17.344465000     -0.373583000
| 45> 1        4.906227000     18.429308000      0.691574000
| 46> *
| 47> 
| 48>                          ****END OF INPUT****
================================================================================

                       ****************************
                       * Single Point Calculation *
                       ****************************

---------------------------------
CARTESIAN COORDINATES (ANGSTROEM)
---------------------------------
  C      7.945172   27.278987    3.003814
  C      6.647486   26.736739    2.323956
  C      6.706563   25.226105    1.926464
  C      5.319457   24.558856    1.634070
  C      5.415929   23.221888    0.959437
  C      5.541775   21.861991    1.576197
  C      6.719188   21.004001    1.026500
  C      7.049055   19.752395    1.927438
  F      9.025410   26.967741    2.279603
  F      8.087954   26.778749    4.232961
  F      7.860662   28.610494    3.095382
  F      5.623938   26.946754    3.180252
  F      6.434622   27.468769    1.210506
  F      7.463176   25.119363    0.809361
  F      7.305794   24.528914    2.917424
  F      4.647264   24.443573    2.804094
  F      4.628482   25.404185    0.819317
  F      5.491616   23.266671   -0.365597
  F      5.718019   22.000274    2.920231
  F      4.375904   21.168527    1.389396
  F      6.405792   20.618906   -0.248843
  F      7.795155   21.844628    0.920217
  O      8.072134   19.846101    2.614908
  O      6.211668   18.826428    1.830982
  O      4.216648   18.063593    0.089421
  H      4.666040   17.344465   -0.373583
  H      4.906227   18.429308    0.691574

----------------------------
CARTESIAN COORDINATES (A.U.)
----------------------------
  NO LB      ZA    FRAG     MASS         X           Y           Z
   0 C     6.0000    0    12.011   15.014199   51.549815    5.676386
   1 C     6.0000    0    12.011   12.561928   50.525114    4.391640
   2 C     6.0000    0    12.011   12.673567   47.670430    3.640489
   3 C     6.0000    0    12.011   10.052317   46.409512    3.087945
   4 C     6.0000    0    12.011   10.234623   43.883009    1.813073
   5 C     6.0000    0    12.011   10.472437   41.313176    2.978581
   6 C     6.0000    0    12.011   12.697425   39.691810    1.939804
   7 C     6.0000    0    12.011   13.320783   37.326617    3.642330
   8 F     9.0000    0    18.998   17.055553   50.961645    4.307825
   9 F     9.0000    0    18.998   15.284018   50.604502    7.999137
  10 F     9.0000    0    18.998   14.854498   54.065998    5.849424
  11 F     9.0000    0    18.998   10.627703   50.921985    6.009805
  12 F     9.0000    0    18.998   12.159673   51.908451    2.287525
  13 F     9.0000    0    18.998   14.103359   47.468717    1.529471
  14 F     9.0000    0    18.998   13.805950   46.352930    5.513132
  15 F     9.0000    0    18.998    8.782056   46.191659    5.298970
  16 F     9.0000    0    18.998    8.746563   48.006952    1.548285
  17 F     9.0000    0    18.998   10.377650   43.967636   -0.690878
  18 F     9.0000    0    18.998   10.805490   41.574493    5.518437
  19 F     9.0000    0    18.998    8.269260   40.002719    2.625578
  20 F     9.0000    0    18.998   12.105193   38.964086   -0.470245
  21 F     9.0000    0    18.998   14.730708   41.280364    1.738958
  22 O     8.0000    0    15.999   15.254123   37.503696    4.941460
  23 O     8.0000    0    15.999   11.738351   35.576793    3.460055
  24 O     8.0000    0    15.999    7.968310   34.135244    0.168981
  25 H     1.0000    0     1.008    8.817538   32.776289   -0.705970
  26 H     1.0000    0     1.008    9.271425   34.826345    1.306885

--------------------------------
INTERNAL COORDINATES (ANGSTROEM)
--------------------------------
 C      0   0   0     0.000000000000     0.00000000     0.00000000
 C      1   0   0     1.562123154000     0.00000000     0.00000000
 C      2   1   0     1.563171476182   114.50225647     0.00000000
 C      3   2   1     1.566773287516   115.18593938   163.13390798
 C      4   3   2     1.500639851696   113.97941887   166.74026270
 C      5   4   3     1.498515920478   128.96785751    88.36538099
 C      6   5   4     1.557117530721   114.72386909   231.95831762
 C      7   6   5     1.577028565616   113.19088802   165.46784378
 F      1   2   3     1.337262046751   110.76683427    50.58519781
 F      1   2   3     1.334701129009   111.07340161   289.33935504
 F      1   2   3     1.337324766006   108.83936334   169.98073397
 F      2   1   3     1.350925478383   107.43228623   122.33086408
 F      2   1   3     1.349425768946   107.56835904   239.09454385
 F      3   2   1     1.353431268644   107.89227304   283.70907154
 F      3   2   1     1.351722901871   109.19470614    41.39733952
 F      4   3   2     1.354285700993   108.32758432   289.73009152
 F      4   3   2     1.362295863561   107.24152809    46.68586044
 F      5   4   3     1.327949223507   114.97327275   273.47427452
 F      6   5   4     1.362575329580   108.95006066   352.93380838
 F      6   5   4     1.369321774288   109.38608205   109.85014143
 F      7   6   5     1.368581374815   108.11128137   288.74486916
 F      7   6   5     1.369545477269   106.45394993    42.57972111
 O      8   7   6     1.236157941194   115.50984246   254.75631734
 O      8   7   6     1.252172365449   113.76617031    74.15336644
 O     24   8   7     2.755913052755   137.51704845    17.35370073
 H     25  24   8     0.966163005949    99.91290404   102.96960644
 H     25  24   8     0.985827010116     5.70635659   325.49958687

---------------------------
INTERNAL COORDINATES (A.U.)
---------------------------
 C      0   0   0     0.000000000000     0.00000000     0.00000000
 C      1   0   0     2.951984948518     0.00000000     0.00000000
 C      2   1   0     2.953965990341   114.50225647     0.00000000
 C      3   2   1     2.960772427348   115.18593938   163.13390798
 C      4   3   2     2.835798345353   113.97941887   166.74026270
 C      5   4   3     2.831784697024   128.96785751    88.36538099
 C      6   5   4     2.942525691390   114.72386909   231.95831762
 C      7   6   5     2.980152094385   113.19088802   165.46784378
 F      1   2   3     2.527059037647   110.76683427    50.58519781
 F      1   2   3     2.522219604462   111.07340161   289.33935504
 F      1   2   3     2.527177559862   108.83936334   169.98073397
 F      2   1   3     2.552879181481   107.43228623   122.33086408
 F      2   1   3     2.550045141364   107.56835904   239.09454385
 F      3   2   1     2.557614438822   107.89227304   283.70907154
 F      3   2   1     2.554386093485   109.19470614    41.39733952
 F      4   3   2     2.559229081962   108.32758432   289.73009152
 F      4   3   2     2.574366095504   107.24152809    46.68586044
 F      5   4   3     2.509460352182   114.97327275   273.47427452
 F      6   5   4     2.574894209744   108.95006066   352.93380838
 F      6   5   4     2.587643142619   109.38608205   109.85014143
 F      7   6   5     2.586243990385   108.11128137   288.74486916
 F      7   6   5     2.588065879988   106.45394993    42.57972111
 O      8   7   6     2.335999967129   115.50984246   254.75631734
 O      8   7   6     2.366262843163   113.76617031    74.15336644
 O     24   8   7     5.207920918606   137.51704845    17.35370073
 H     25  24   8     1.825783481969    99.91290404   102.96960644
 H     25  24   8     1.862943064542     5.70635659   325.49958687

---------------------
BASIS SET INFORMATION
---------------------
There are 4 groups of distinct atoms

 Group   1 Type C   : 11s6p2d1f contracted to 5s3p2d1f pattern {62111/411/11/1}
 Group   2 Type F   : 11s6p2d1f contracted to 5s3p2d1f pattern {62111/411/11/1}
 Group   3 Type O   : 11s6p2d1f contracted to 5s3p2d1f pattern {62111/411/11/1}
 Group   4 Type H   : 5s1p contracted to 3s1p pattern {311/1}

Atom   0C    basis set group =>   1
Atom   1C    basis set group =>   1
Atom   2C    basis set group =>   1
Atom   3C    basis set group =>   1
Atom   4C    basis set group =>   1
Atom   5C    basis set group =>   1
Atom   6C    basis set group =>   1
Atom   7C    basis set group =>   1
Atom   8F    basis set group =>   2
Atom   9F    basis set group =>   2
Atom  10F    basis set group =>   2
Atom  11F    basis set group =>   2
Atom  12F    basis set group =>   2
Atom  13F    basis set group =>   2
Atom  14F    basis set group =>   2
Atom  15F    basis set group =>   2
Atom  16F    basis set group =>   2
Atom  17F    basis set group =>   2
Atom  18F    basis set group =>   2
Atom  19F    basis set group =>   2
Atom  20F    basis set group =>   2
Atom  21F    basis set group =>   2
Atom  22O    basis set group =>   3
Atom  23O    basis set group =>   3
Atom  24O    basis set group =>   3
Atom  25H    basis set group =>   4
Atom  26H    basis set group =>   4
---------------------------------
AUXILIARY/J BASIS SET INFORMATION
---------------------------------
There are 4 groups of distinct atoms

 Group   1 Type C   : 12s5p4d2f1g contracted to 6s4p3d1f1g pattern {711111/2111/211/2/1}
 Group   2 Type F   : 12s5p4d2f1g contracted to 6s4p3d1f1g pattern {711111/2111/211/2/1}
 Group   3 Type O   : 12s5p4d2f1g contracted to 6s4p3d1f1g pattern {711111/2111/211/2/1}
 Group   4 Type H   : 5s2p1d contracted to 3s1p1d pattern {311/2/1}

Atom   0C    basis set group =>   1
Atom   1C    basis set group =>   1
Atom   2C    basis set group =>   1
Atom   3C    basis set group =>   1
Atom   4C    basis set group =>   1
Atom   5C    basis set group =>   1
Atom   6C    basis set group =>   1
Atom   7C    basis set group =>   1
Atom   8F    basis set group =>   2
Atom   9F    basis set group =>   2
Atom  10F    basis set group =>   2
Atom  11F    basis set group =>   2
Atom  12F    basis set group =>   2
Atom  13F    basis set group =>   2
Atom  14F    basis set group =>   2
Atom  15F    basis set group =>   2
Atom  16F    basis set group =>   2
Atom  17F    basis set group =>   2
Atom  18F    basis set group =>   2
Atom  19F    basis set group =>   2
Atom  20F    basis set group =>   2
Atom  21F    basis set group =>   2
Atom  22O    basis set group =>   3
Atom  23O    basis set group =>   3
Atom  24O    basis set group =>   3
Atom  25H    basis set group =>   4
Atom  26H    basis set group =>   4


           ************************************************************
           *        Program running with 20 parallel MPI-processes    *
           *              working on a common directory               *
           ************************************************************
------------------------------------------------------------------------------
                             ORCA STARTUP CALCULATIONS
                           -- RI-GTO INTEGRALS CHOSEN --
------------------------------------------------------------------------------
------------------------------------------------------------------------------
                   ___                                                        
                  /   \      - P O W E R E D   B Y -                         
                 /     \                                                     
                 |  |  |   _    _      __       _____    __    __             
                 |  |  |  | |  | |    /  \     |  _  \  |  |  /  |          
                  \  \/   | |  | |   /    \    | | | |  |  | /  /          
                 / \  \   | |__| |  /  /\  \   | |_| |  |  |/  /          
                |  |  |   |  __  | /  /__\  \  |    /   |      \           
                |  |  |   | |  | | |   __   |  |    \   |  |\   \          
                \     /   | |  | | |  |  |  |  | |\  \  |  | \   \       
                 \___/    |_|  |_| |__|  |__|  |_| \__\ |__|  \__/        
                                                                              
                      - O R C A' S   B I G   F R I E N D -                    
                                      &                                       
                       - I N T E G R A L  F E E D E R -                       
                                                                              
 v1 FN, 2020, v2 2021, v3 2022-2024                                           
------------------------------------------------------------------------------


----------------------
SHARK INTEGRAL PACKAGE
----------------------

Number of atoms                             ...     27
Number of basis functions                   ...    787
Number of shells                            ...    283
Maximum angular momentum                    ...      3
Integral batch strategy                     ... SHARK/LIBINT Hybrid
RI-J (if used) integral strategy            ... SPLIT-RIJ (Revised 2003 algorithm where possible)
Printlevel                                  ...      1
Contraction scheme used                     ... SEGMENTED contraction
Prescreening option                         ... SCHWARTZ
   Thresh                                   ... 2.500e-11
   Tcut                                     ... 2.500e-12
   Tpresel                                  ... 2.500e-12 
Coulomb Range Separation                    ... NOT USED
Exchange Range Separation                   ... NOT USED
Multipole approximations                    ... NOT USED
Finite Nucleus Model                        ... NOT USED
CABS basis                                  ... NOT available
Auxiliary Coulomb fitting basis             ... AVAILABLE
   # of basis functions in Aux-J            ...   1247
   # of shells in Aux-J                     ...    385
   Maximum angular momentum in Aux-J        ...      4
Auxiliary J/K fitting basis                 ... NOT available
Auxiliary Correlation fitting basis         ... NOT available
Auxiliary 'external' fitting basis          ... NOT available

Checking pre-screening integrals            ... done (  0.0 sec) Dimension = 283
Check shell pair data                       ... done (  0.0 sec)
Shell pair information
Shell pair cut-off parameter TPreSel        ...   2.5e-12
Total number of shell pairs                 ...     40186
Shell pairs after pre-screening             ...     24353
Total number of primitive shell pairs       ...    131884
Primitive shell pairs kept                  ...     51063
          la=0 lb=0:   4728 shell pairs
          la=1 lb=0:   6713 shell pairs
          la=1 lb=1:   2291 shell pairs
          la=2 lb=0:   3589 shell pairs
          la=2 lb=1:   2602 shell pairs
          la=2 lb=2:    720 shell pairs
          la=3 lb=0:   1641 shell pairs
          la=3 lb=1:   1254 shell pairs
          la=3 lb=2:    652 shell pairs
          la=3 lb=3:    163 shell pairs

Calculating one electron integrals          ... done (  0.0 sec)
Calculating RI/J V-Matrix + Cholesky decomp.... done (  0.1 sec)
Calculating Nuclear repulsion               ... done (  0.0 sec) ENN=   2835.591490601798 Eh

Diagonalization of the overlap matrix:
Smallest eigenvalue                        ... 7.478e-05
Time for diagonalization                   ...    0.117 sec
Threshold for overlap eigenvalues          ... 1.000e-07
Number of eigenvalues below threshold      ... 0
Time for construction of square roots      ...    0.052 sec
Total time needed                          ...    0.174 sec

-------------------
DFT GRID GENERATION
-------------------

General Integration Accuracy     IntAcc      ... 4.388
Radial Grid Type                 RadialGrid  ... OptM3 with GC (2021)
Angular Grid (max. ang.)         AngularGrid ... 4 (Lebedev-302)
Angular grid pruning method      GridPruning ... 4 (adaptive)
Weight generation scheme         WeightScheme... mBecke (2022)
Basis function cutoff            BFCut       ... 1.0000e-11
Integration weight cutoff        WCut        ... 1.0000e-14
Partially contracted basis set               ... off
Rotationally invariant grid construction     ... off
Angular grids for H and He will be reduced by one unit

Total number of grid points                  ...   157998
Total number of batches                      ...     2483
Average number of points per batch           ...       63
Average number of grid points per atom       ...     5852

--------------------
COSX GRID GENERATION
--------------------

GRIDX 1
-------
General Integration Accuracy     IntAcc      ... 3.816
Radial Grid Type                 RadialGrid  ... OptM3 with GC (2021)
Angular Grid (max. ang.)         AngularGrid ... 1 (Lebedev-50)
Angular grid pruning method      GridPruning ... 4 (adaptive)
Weight generation scheme         WeightScheme... mBecke (2022)
Basis function cutoff            BFCut       ... 1.0000e-11
Integration weight cutoff        WCut        ... 1.0000e-14
Partially contracted basis set               ... on
Rotationally invariant grid construction     ... off
Angular grids for H and He will be reduced by one unit

Total number of grid points                  ...    19867
Total number of batches                      ...      167
Average number of points per batch           ...      118
Average number of grid points per atom       ...      736
UseSFitting                                  ... on

GRIDX 2
-------
General Integration Accuracy     IntAcc      ... 4.020
Radial Grid Type                 RadialGrid  ... OptM3 with GC (2021)
Angular Grid (max. ang.)         AngularGrid ... 2 (Lebedev-110)
Angular grid pruning method      GridPruning ... 4 (adaptive)
Weight generation scheme         WeightScheme... mBecke (2022)
Basis function cutoff            BFCut       ... 1.0000e-11
Integration weight cutoff        WCut        ... 1.0000e-14
Partially contracted basis set               ... on
Rotationally invariant grid construction     ... off
Angular grids for H and He will be reduced by one unit

Total number of grid points                  ...    46558
Total number of batches                      ...      378
Average number of points per batch           ...      123
Average number of grid points per atom       ...     1724
UseSFitting                                  ... on

GRIDX 3
-------
General Integration Accuracy     IntAcc      ... 4.338
Radial Grid Type                 RadialGrid  ... OptM3 with GC (2021)
Angular Grid (max. ang.)         AngularGrid ... 3 (Lebedev-194)
Angular grid pruning method      GridPruning ... 4 (adaptive)
Weight generation scheme         WeightScheme... mBecke (2022)
Basis function cutoff            BFCut       ... 1.0000e-11
Integration weight cutoff        WCut        ... 1.0000e-14
Partially contracted basis set               ... on
Rotationally invariant grid construction     ... off
Angular grids for H and He will be reduced by one unit

Total number of grid points                  ...   103039
Total number of batches                      ...      818
Average number of points per batch           ...      125
Average number of grid points per atom       ...     3816
UseSFitting                                  ... on
Initializing property integral containers    ... done (  0.0 sec)

SHARK setup successfully completed in   3.2 seconds

Maximum memory used throughout the entire STARTUP-calculation: 61.3 MB


           ************************************************************
           *        Program running with 20 parallel MPI-processes    *
           *              working on a common directory               *
           ************************************************************
-------------------------------------------------------------------------------
                                 ORCA GUESS
                   Start orbitals & Density for SCF / CASSCF
-------------------------------------------------------------------------------

------------
SCF SETTINGS
------------
Hamiltonian:
 Density Functional     Method          .... DFT(GTOs)
 Exchange Functional    Exchange        .... TPSS
 Correlation Functional Correlation     .... TPSS
 LDA part of GGA corr.  LDAOpt          .... PW91-LDA
 Gradients option       PostSCFGGA      .... off
 Hybrid DFT is turned on
   Fraction HF Exchange ScalHFX         ....  0.100000
   Scaling of DF-GGA-X  ScalDFX         ....  0.900000
   Scaling of DF-GGA-C  ScalDFC         ....  1.000000
   Scaling of DF-LDA-C  ScalLDAC        ....  1.000000
   Perturbative correction              ....  0.000000
   NL short-range parameter             ....  5.200000
 RI-approximation to the Coulomb term is turned on
   Number of AuxJ basis functions       .... 1247
   RIJ-COSX (HFX calculated with COS-X)).... on


General Settings:
 Integral files         IntName         .... rf_mecn_1H2O_freq_TP_con_02
 Hartree-Fock type      HFTyp           .... UHF
 Total Charge           Charge          ....   -1
 Multiplicity           Mult            ....    2
 Number of Electrons    NEL             ....  201
 Basis Dimension        Dim             ....  787
 Nuclear Repulsion      ENuc            ....   2835.5914906018 Eh

Convergence Acceleration:
 AO-DIIS                CNVDIIS         .... on
   Start iteration      DIISMaxIt       ....     0
   Startup error        DIISStart       ....  0.200000
   # of expansion vecs  DIISMaxEq       ....     5
   Bias factor          DIISBfac        ....   1.050
   Max. coefficient     DIISMaxC        ....  10.000
 MO-DIIS                CNVKDIIS        .... off
 Trust-Rad. Augm. Hess. CNVTRAH         .... auto
   Auto Start mean grad. ratio tolernc. ....  1.125000
   Auto Start start iteration           ....    50
   Auto Start num. interpolation iter.  ....    10
   Max. Number of Micro iterations      ....    24
   Max. Number of Macro iterations      .... Maxiter - #DIIS iter
   Number of Davidson start vectors     ....     2
   Converg. threshold    (grad. norm)   ....   1.000e-05
   Grad. Scal. Fac. for Micro threshold ....   0.100
   Minimum threshold for Micro iter.    ....   1.000e-02
   NR start threshold (gradient norm)   ....   1.000e-04
   Initial trust radius                 ....   0.400
   Minimum AH scaling param. (alpha)    ....   1.000
   Maximum AH scaling param. (alpha)    .... 1000.000
   Quad. conv. algorithm                .... NR
   White noise on init. David. guess    .... on
   Maximum white noise                  ....   0.010
   Pseudo random numbers                .... off
   Inactive MOs                         .... canonical
   Orbital update algorithm             .... Taylor
   Preconditioner                       .... Diag
   Full preconditioner red. dimension   ....   250
 SOSCF                  CNVSOSCF        .... on
   Start iteration      SOSCFMaxIt      ....   150
   Startup grad/error   SOSCFStart      ....  0.001000
   Hessian update       SOSCFHessUp     .... L-BFGS
 Level Shifting         CNVShift        .... on
   Level shift para.    LevelShift      ....    0.2500
   Turn off err/grad.   ShiftErr        ....    0.0000
 Zerner damping         CNVZerner       .... off
 Static damping         CNVDamp         .... on
   Fraction old density DampFac         ....    0.8500
   Max. Damping (<1)    DampMax         ....    0.9800
   Min. Damping (>=0)   DampMin         ....    0.0000
   Turn off err/grad.   DampErr         ....    0.0300

SCF Procedure:
 Maximum # iterations   MaxIter         ....  1500
 SCF integral mode      SCFMode         .... Direct
   Integral package                     .... SHARK and LIBINT hybrid scheme
 Reset frequency        DirectResetFreq ....    20
 Integral Threshold     Thresh          ....  2.500e-11 Eh
 Primitive CutOff       TCut            ....  2.500e-12 Eh

Convergence Tolerance:
 Convergence Check Mode ConvCheckMode   .... Total+1el-Energy
 Convergence forced     ConvForced      .... 0
 Energy Change          TolE            ....  1.000e-08 Eh
 1-El. energy change                    ....  1.000e-05 Eh
 Orbital Gradient       TolG            ....  1.000e-05
 Orbital Rotation angle TolX            ....  1.000e-05
 DIIS Error             TolErr          ....  5.000e-07

------------------------------
INITIAL GUESS: MODEL POTENTIAL
------------------------------
Loading Hartree-Fock densities                     ... done
Calculating cut-offs                               ... done
Initializing the effective Hamiltonian             ... done
Setting up the integral package (SHARK)            ... done
Starting the Coulomb interaction                   ... done (   0.2 sec)
Making the grid                                    ... done (   0.5 sec)
Mapping shells                                     ... done
Starting the XC term evaluation                    ... done (   0.1 sec)
  promolecular density results
     # of electrons  =    199.995374130
     EX              =   -205.921673538
     EC              =     -6.991646495
     EX+EC           =   -212.913320033
Transforming the Hamiltonian                       ... done (   0.1 sec)
Diagonalizing the Hamiltonian                      ... done (   0.1 sec)
Back transforming the eigenvectors                 ... done (   0.0 sec)
Now organizing SCF variables                       ... done
                      ------------------
                      INITIAL GUESS DONE (   1.1 sec)
                      ------------------
             **** ENERGY FILE WAS UPDATED (rf_mecn_1H2O_freq_TP_con_02.en.tmp) ****
Finished Guess after   1.9 sec
Maximum memory used throughout the entire GUESS-calculation: 50.4 MB


           ************************************************************
           *        Program running with 20 parallel MPI-processes    *
           *              working on a common directory               *
           ************************************************************

-------------------------------------------------------------------------------------------
                                      ORCA LEAN-SCF
                              memory conserving SCF solver
-------------------------------------------------------------------------------------------

--------------------
CPCM SOLVATION MODEL
--------------------
CPCM parameters:
  Epsilon                                         ...      35.6880
  Refrac                                          ...       1.3442
  Rsolv                                           ...       1.3000
  Surface type                                    ... GAUSSIAN VDW
  Discretization scheme                           ... Constant charge density
    Threshold for H atoms                         ...       5.0000 (charges/Ang^2)
    Threshold for non-H atoms                     ...       5.0000 (charges/Ang^2)
  Epsilon function type                           ...         CPCM
Solvent:                                          ... ACETONITRILE
SMD-CDS solvent descriptors:
  Soln                                            ...       1.3442
  Soln25                                          ...       1.3416
  Sola                                            ...       0.0700
  Solb                                            ...       0.3200
  Solg                                            ...      41.2500
  Solc                                            ...       0.0000
  Solh                                            ...       0.0000
Radii:
  Scheme                                          ... Element-dependent radii
  Radius for C  used is    3.4960 Bohr (=   1.8500 Ang.)
  Radius for F  used is    3.2692 Bohr (=   1.7300 Ang.)
  Radius for O  used is    4.0969 Bohr (=   2.1680 Ang.)
  Radius for H  used is    2.2677 Bohr (=   1.2000 Ang.)
Calculating surface                               ...        done! (  0.0s)
Cavity surface points                             ...         2414
Cavity Volume                                     ...    2348.6432
Cavity Surface-area                               ...    1219.2231
Calculating surface distance matrix               ...        done! (  0.0s)
Performing Cholesky decomposition & store         ...        done! (  0.1s)
Overall time for CPCM initialization              ...                 0.2s

----------------------------------------D-I-I-S--------------------------------------------
Iteration    Energy (Eh)           Delta-E    RMSDP     MaxDP     DIISErr   Damp  Time(sec)
-------------------------------------------------------------------------------------------
               ***  Starting incremental Fock matrix formation  ***
    1    -1929.8859761489507036     0.00e+00  2.48e-04  2.59e-02  1.61e-01  0.850   6.9
Warning: op=0 Small HOMO/LUMO gap (   0.065) - skipping pre-diagonalization
         Will do a full diagonalization
    2    -1930.0469352503218943    -1.61e-01  3.18e-04  5.64e-02  1.12e-01  0.850   4.8
                               ***Turning on AO-DIIS***
    3    -1930.1338272592151952    -8.69e-02  1.60e-04  3.08e-02  6.89e-02  0.850   4.1
    4    -1930.1856134469385324    -5.18e-02  8.62e-05  1.39e-02  5.11e-02  0.850   4.2
    5    -1930.2222969256376928    -3.67e-02  5.45e-05  4.98e-03  4.15e-02  0.850   3.9
    6    -1930.2512874212502538    -2.90e-02  4.16e-05  3.11e-03  3.52e-02  0.850   3.9
    7    -1930.2753809212213127    -2.41e-02  3.62e-05  3.04e-03  3.04e-02  0.850   3.8
    8    -1930.2957712252878082    -2.04e-02  3.23e-05  2.79e-03  2.59e-02  0.850   3.8
    9    -1930.3128336194072290    -1.71e-02  1.88e-04  1.61e-02  2.16e-02  0.000   3.7
   10    -1930.4027192213120543    -8.99e-02  1.56e-05  1.68e-03  3.42e-03  0.000   4.0
   11    -1930.4028623543404137    -1.43e-04  9.65e-06  1.61e-03  1.10e-03  0.000   3.6
   12    -1930.4028913389470290    -2.90e-05  5.30e-06  5.82e-04  1.02e-03  0.000   3.4
                              *** Initializing SOSCF ***
---------------------------------------S-O-S-C-F--------------------------------------
Iteration    Energy (Eh)           Delta-E    RMSDP     MaxDP     MaxGrad    Time(sec)
--------------------------------------------------------------------------------------
   13    -1930.4029070186602439    -1.57e-05  4.01e-06  4.22e-04  5.42e-04     3.8
               *** Restarting incremental Fock matrix formation ***
   14    -1930.4028964261947294     1.06e-05  8.40e-06  1.07e-03  7.58e-04     6.6
   15    -1930.4029028039990408    -6.38e-06  5.12e-06  6.16e-04  1.16e-04     4.5
   16    -1930.4029023303478425     4.74e-07  2.46e-06  2.58e-04  1.56e-04     4.4
   17    -1930.4029037382692877    -1.41e-06  1.84e-06  2.40e-04  6.39e-05     4.0
   18    -1930.4029035755552286     1.63e-07  1.00e-06  1.17e-04  1.03e-04     3.7
   19    -1930.4029038127287095    -2.37e-07  4.97e-07  7.15e-05  1.30e-05     3.6
   20    -1930.4029038083876912     4.34e-09  2.71e-07  3.40e-05  2.03e-05     3.2
                 **** Energy Check signals convergence ****

               *****************************************************
               *                     SUCCESS                       *
               *           SCF CONVERGED AFTER  20 CYCLES          *
               *****************************************************

Recomputing exchange energy using gridx3       ... done (    7.446 sec)
Old exchange energy                            :    -20.797786115 Eh
New exchange energy                            :    -20.797808255 Eh
Exchange energy change after final integration :     -0.000022140 Eh
Total energy after final integration           :  -1930.402925948 Eh

SMD CDS free energy correction energy :                 2.92700     Kcal/mol
Total Energy after SMD CDS correction =             -1930.398261480 Eh
             **** ENERGY FILE WAS UPDATED (rf_mecn_1H2O_freq_TP_con_02.en.tmp) ****

----------------
TOTAL SCF ENERGY
----------------

Total Energy       :      -1930.39826147959411 Eh          -52528.80721 eV

Components:
Nuclear Repulsion  :       2835.59149060179834 Eh           77160.36722 eV
Electronic Energy  :      -4765.91309252058363 Eh         -129687.08841 eV
One Electron Energy:      -8351.83865787490504 Eh         -227265.08381 eV
Two Electron Energy:       3585.92556535432141 Eh           97577.99540 eV
CPCM Dielectric    :         -0.08130188960218 Eh              -2.21234 eV
SMD CDS (Gcds)     :          0.00466446885892 Eh               0.12693 eV

Virial components:
Potential Energy   :      -3854.21689434037899 Eh         -104878.57362 eV
Kinetic Energy     :       1923.81863286078487 Eh           52349.76641 eV
Virial Ratio       :          2.00342008779124

DFT components:
N(Alpha)           :      100.999967302996 electrons
N(Beta)            :       99.999976042328 electrons
N(Total)           :      200.999943345324 electrons
E(X)               :     -189.000248024627 Eh       
E(C)               :       -7.048849160601 Eh       
E(XC)              :     -196.049097185228 Eh       

CPCM Solvation Model Properties:
Surface-charge          :          0.99035640794565
Corrected charge        :          1.00000000000000
Outlying charge corr.   :          0.00000490849511 Eh               0.00013 eV
Free-energy (cav+disp)  :          0.00466446885892 Eh               0.12693 eV

---------------
SCF CONVERGENCE
---------------

  Last Energy change         ...   -4.3410e-09  Tolerance :   1.0000e-08
  Last MAX-Density change    ...    3.4043e-05  Tolerance :   1.0000e-07
  Last RMS-Density change    ...    2.7103e-07  Tolerance :   5.0000e-09
  Last DIIS Error            ...    5.4155e-04  Tolerance :   5.0000e-07
  Last Orbital Gradient      ...    2.0295e-05  Tolerance :   1.0000e-05
  Last Orbital Rotation      ...    5.9921e-05  Tolerance :   1.0000e-05


----------------------
UHF SPIN CONTAMINATION
----------------------

Warning: in a DFT calculation there is little theoretical justification to 
         calculate <S**2> as in Hartree-Fock theory. We will do it anyways
         but you should keep in mind that the values have only limited relevance

Expectation value of <S**2>     :     0.755550
Ideal value S*(S+1) for S=0.5   :     0.750000
Deviation                       :     0.005550

----------------
ORBITAL ENERGIES
----------------
                 SPIN UP ORBITALS
  NO   OCC          E(Eh)            E(eV) 
   0   1.0000     -24.663277      -671.1219 
   1   1.0000     -24.659548      -671.0204 
   2   1.0000     -24.658663      -670.9963 
   3   1.0000     -24.657896      -670.9755 
   4   1.0000     -24.657313      -670.9596 
   5   1.0000     -24.656712      -670.9433 
   6   1.0000     -24.656224      -670.9300 
   7   1.0000     -24.655570      -670.9122 
   8   1.0000     -24.648872      -670.7299 
   9   1.0000     -24.648782      -670.7275 
  10   1.0000     -24.637010      -670.4071 
  11   1.0000     -24.629144      -670.1931 
  12   1.0000     -24.616734      -669.8554 
  13   1.0000     -24.616376      -669.8456 
  14   1.0000     -19.011990      -517.3426 
  15   1.0000     -19.000157      -517.0206 
  16   1.0000     -18.996744      -516.9277 
  17   1.0000     -10.393897      -282.8323 
  18   1.0000     -10.341053      -281.3944 
  19   1.0000     -10.338003      -281.3114 
  20   1.0000     -10.337874      -281.3078 
  21   1.0000     -10.316741      -280.7328 
  22   1.0000     -10.282314      -279.7960 
  23   1.0000     -10.255702      -279.0718 
  24   1.0000     -10.199509      -277.5428 
  25   1.0000      -1.320464       -35.9316 
  26   1.0000      -1.291680       -35.1484 
  27   1.0000      -1.276010       -34.7220 
  28   1.0000      -1.270444       -34.5705 
  29   1.0000      -1.260201       -34.2918 
  30   1.0000      -1.252248       -34.0754 
  31   1.0000      -1.235010       -33.6063 
  32   1.0000      -1.233466       -33.5643 
  33   1.0000      -1.229762       -33.4635 
  34   1.0000      -1.226195       -33.3665 
  35   1.0000      -1.219048       -33.1720 
  36   1.0000      -1.213046       -33.0087 
  37   1.0000      -1.198023       -32.5999 
  38   1.0000      -1.177826       -32.0503 
  39   1.0000      -1.007746       -27.4222 
  40   1.0000      -0.946831       -25.7646 
  41   1.0000      -0.924668       -25.1615 
  42   1.0000      -0.826701       -22.4957 
  43   1.0000      -0.805392       -21.9158 
  44   1.0000      -0.767989       -20.8981 
  45   1.0000      -0.731353       -19.9011 
  46   1.0000      -0.687781       -18.7155 
  47   1.0000      -0.662749       -18.0343 
  48   1.0000      -0.634136       -17.2557 
  49   1.0000      -0.617694       -16.8083 
  50   1.0000      -0.614550       -16.7228 
  51   1.0000      -0.607541       -16.5320 
  52   1.0000      -0.594486       -16.1768 
  53   1.0000      -0.589440       -16.0395 
  54   1.0000      -0.587853       -15.9963 
  55   1.0000      -0.578865       -15.7517 
  56   1.0000      -0.574301       -15.6275 
  57   1.0000      -0.564030       -15.3480 
  58   1.0000      -0.561408       -15.2767 
  59   1.0000      -0.551531       -15.0079 
  60   1.0000      -0.550633       -14.9835 
  61   1.0000      -0.534852       -14.5541 
  62   1.0000      -0.523623       -14.2485 
  63   1.0000      -0.496568       -13.5123 
  64   1.0000      -0.482068       -13.1177 
  65   1.0000      -0.479635       -13.0515 
  66   1.0000      -0.477137       -12.9835 
  67   1.0000      -0.472317       -12.8524 
  68   1.0000      -0.468010       -12.7352 
  69   1.0000      -0.464408       -12.6372 
  70   1.0000      -0.458077       -12.4649 
  71   1.0000      -0.454124       -12.3573 
  72   1.0000      -0.449765       -12.2387 
  73   1.0000      -0.442506       -12.0412 
  74   1.0000      -0.440913       -11.9979 
  75   1.0000      -0.438602       -11.9350 
  76   1.0000      -0.434386       -11.8202 
  77   1.0000      -0.432519       -11.7694 
  78   1.0000      -0.431166       -11.7326 
  79   1.0000      -0.422652       -11.5009 
  80   1.0000      -0.421846       -11.4790 
  81   1.0000      -0.418046       -11.3756 
  82   1.0000      -0.414516       -11.2796 
  83   1.0000      -0.414324       -11.2743 
  84   1.0000      -0.411083       -11.1861 
  85   1.0000      -0.410143       -11.1605 
  86   1.0000      -0.403172       -10.9709 
  87   1.0000      -0.400545       -10.8994 
  88   1.0000      -0.391269       -10.6470 
  89   1.0000      -0.388533       -10.5725 
  90   1.0000      -0.382838       -10.4176 
  91   1.0000      -0.380916       -10.3653 
  92   1.0000      -0.372145       -10.1266 
  93   1.0000      -0.348184        -9.4746 
  94   1.0000      -0.332207        -9.0398 
  95   1.0000      -0.330072        -8.9817 
  96   1.0000      -0.258246        -7.0272 
  97   1.0000      -0.250619        -6.8197 
  98   1.0000      -0.242110        -6.5881 
  99   1.0000      -0.229102        -6.2342 
 100   1.0000      -0.223296        -6.0762 
 101   0.0000      -0.013762        -0.3745 
 102   0.0000       0.008709         0.2370 
 103   0.0000       0.011599         0.3156 
 104   0.0000       0.038102         1.0368 
 105   0.0000       0.059119         1.6087 
 106   0.0000       0.066962         1.8221 
 107   0.0000       0.081288         2.2120 
 108   0.0000       0.093810         2.5527 
 109   0.0000       0.099055         2.6954 
 110   0.0000       0.110335         3.0024 
 111   0.0000       0.119140         3.2420 

                 SPIN DOWN ORBITALS
  NO   OCC          E(Eh)            E(eV) 
   0   1.0000     -24.659552      -671.0205 
   1   1.0000     -24.658992      -671.0053 
   2   1.0000     -24.658661      -670.9963 
   3   1.0000     -24.657855      -670.9743 
   4   1.0000     -24.657321      -670.9598 
   5   1.0000     -24.656699      -670.9429 
   6   1.0000     -24.656217      -670.9298 
   7   1.0000     -24.655559      -670.9119 
   8   1.0000     -24.648446      -670.7183 
   9   1.0000     -24.648281      -670.7138 
  10   1.0000     -24.636906      -670.4043 
  11   1.0000     -24.627833      -670.1574 
  12   1.0000     -24.616602      -669.8518 
  13   1.0000     -24.616334      -669.8445 
  14   1.0000     -19.011989      -517.3425 
  15   1.0000     -19.000126      -517.0197 
  16   1.0000     -18.996564      -516.9228 
  17   1.0000     -10.393832      -282.8305 
  18   1.0000     -10.340899      -281.3902 
  19   1.0000     -10.338929      -281.3366 
  20   1.0000     -10.337161      -281.2884 
  21   1.0000     -10.317613      -280.7565 
  22   1.0000     -10.281878      -279.7841 
  23   1.0000     -10.240090      -278.6470 
  24   1.0000     -10.199482      -277.5420 
  25   1.0000      -1.320418       -35.9304 
  26   1.0000      -1.291216       -35.1358 
  27   1.0000      -1.275508       -34.7083 
  28   1.0000      -1.268939       -34.5296 
  29   1.0000      -1.257934       -34.2301 
  30   1.0000      -1.246495       -33.9189 
  31   1.0000      -1.234951       -33.6047 
  32   1.0000      -1.233075       -33.5537 
  33   1.0000      -1.229711       -33.4621 
  34   1.0000      -1.226006       -33.3613 
  35   1.0000      -1.218947       -33.1692 
  36   1.0000      -1.212044       -32.9814 
  37   1.0000      -1.196284       -32.5525 
  38   1.0000      -1.177552       -32.0428 
  39   1.0000      -1.007566       -27.4173 
  40   1.0000      -0.946818       -25.7642 
  41   1.0000      -0.924463       -25.1559 
  42   1.0000      -0.819037       -22.2871 
  43   1.0000      -0.796815       -21.6824 
  44   1.0000      -0.766639       -20.8613 
  45   1.0000      -0.725591       -19.7443 
  46   1.0000      -0.684405       -18.6236 
  47   1.0000      -0.661951       -18.0126 
  48   1.0000      -0.630207       -17.1488 
  49   1.0000      -0.616361       -16.7720 
  50   1.0000      -0.612917       -16.6783 
  51   1.0000      -0.607368       -16.5273 
  52   1.0000      -0.593014       -16.1367 
  53   1.0000      -0.587973       -15.9996 
  54   1.0000      -0.584543       -15.9062 
  55   1.0000      -0.577636       -15.7183 
  56   1.0000      -0.572796       -15.5866 
  57   1.0000      -0.560927       -15.2636 
  58   1.0000      -0.560083       -15.2406 
  59   1.0000      -0.550170       -14.9709 
  60   1.0000      -0.550040       -14.9674 
  61   1.0000      -0.533178       -14.5085 
  62   1.0000      -0.522169       -14.2090 
  63   1.0000      -0.481951       -13.1146 
  64   1.0000      -0.480254       -13.0684 
  65   1.0000      -0.477548       -12.9947 
  66   1.0000      -0.472926       -12.8690 
  67   1.0000      -0.469145       -12.7661 
  68   1.0000      -0.466832       -12.7031 
  69   1.0000      -0.464024       -12.6267 
  70   1.0000      -0.456009       -12.4086 
  71   1.0000      -0.453156       -12.3310 
  72   1.0000      -0.448604       -12.2071 
  73   1.0000      -0.441233       -12.0066 
  74   1.0000      -0.440316       -11.9816 
  75   1.0000      -0.437992       -11.9184 
  76   1.0000      -0.432438       -11.7672 
  77   1.0000      -0.431037       -11.7291 
  78   1.0000      -0.430280       -11.7085 
  79   1.0000      -0.421738       -11.4761 
  80   1.0000      -0.421147       -11.4600 
  81   1.0000      -0.417785       -11.3685 
  82   1.0000      -0.413636       -11.2556 
  83   1.0000      -0.412814       -11.2332 
  84   1.0000      -0.410775       -11.1777 
  85   1.0000      -0.409571       -11.1450 
  86   1.0000      -0.402498       -10.9525 
  87   1.0000      -0.399580       -10.8731 
  88   1.0000      -0.389878       -10.6091 
  89   1.0000      -0.388215       -10.5639 
  90   1.0000      -0.382526       -10.4090 
  91   1.0000      -0.379486       -10.3264 
  92   1.0000      -0.371897       -10.1198 
  93   1.0000      -0.345376        -9.3982 
  94   1.0000      -0.331917        -9.0319 
  95   1.0000      -0.328449        -8.9376 
  96   1.0000      -0.258226        -7.0267 
  97   1.0000      -0.241961        -6.5841 
  98   1.0000      -0.229438        -6.2433 
  99   1.0000      -0.224484        -6.1085 
 100   0.0000      -0.125697        -3.4204 
 101   0.0000      -0.009746        -0.2652 
 102   0.0000       0.012010         0.3268 
 103   0.0000       0.015375         0.4184 
 104   0.0000       0.042581         1.1587 
 105   0.0000       0.061439         1.6719 
 106   0.0000       0.069994         1.9046 
 107   0.0000       0.088875         2.4184 
 108   0.0000       0.095825         2.6075 
 109   0.0000       0.108858         2.9622 
 110   0.0000       0.112428         3.0593 
*Only the first 10 virtual orbitals were printed.

                    ********************************
                    * MULLIKEN POPULATION ANALYSIS *
                    ********************************

--------------------------------------------
MULLIKEN ATOMIC CHARGES AND SPIN POPULATIONS
--------------------------------------------
   0 C :    0.410262    0.002824
   1 C :    0.299058    0.005885
   2 C :    0.259205    0.034069
   3 C :    0.348868   -0.025717
   4 C :    0.110682    0.856576
   5 C :    0.302475   -0.013966
   6 C :    0.304212    0.008783
   7 C :    0.213781    0.000116
   8 F :   -0.136711   -0.000071
   9 F :   -0.133950    0.000032
  10 F :   -0.134229    0.000799
  11 F :   -0.148605   -0.000195
  12 F :   -0.146643    0.000146
  13 F :   -0.159818   -0.000708
  14 F :   -0.159248   -0.000529
  15 F :   -0.153291    0.006379
  16 F :   -0.160086    0.008576
  17 F :   -0.136021    0.081074
  18 F :   -0.178448    0.000775
  19 F :   -0.173502    0.024871
  20 F :   -0.197663    0.002822
  21 F :   -0.197080    0.000098
  22 O :   -0.458464    0.006168
  23 O :   -0.522514    0.001114
  24 O :   -0.740371    0.000011
  25 H :    0.330911    0.000007
  26 H :    0.357190    0.000062
Sum of atomic charges         :   -1.0000000
Sum of atomic spin populations:    1.0000000

-----------------------------------------------------
MULLIKEN REDUCED ORBITAL CHARGES AND SPIN POPULATIONS
-----------------------------------------------------
CHARGE
  0 C s       :     3.021165  s :     3.021165
      pz      :     0.687110  p :     2.166018
      px      :     0.805567
      py      :     0.673341
      dz2     :     0.070920  d :     0.362151
      dxz     :     0.067456
      dyz     :     0.084564
      dx2y2   :     0.061448
      dxy     :     0.077763
      f0      :     0.006972  f :     0.040404
      f+1     :     0.007560
      f-1     :     0.004114
      f+2     :     0.006642
      f-2     :     0.004358
      f+3     :     0.006812
      f-3     :     0.003948

  1 C s       :     3.101340  s :     3.101340
      pz      :     0.651325  p :     2.276111
      px      :     0.767173
      py      :     0.857614
      dz2     :     0.074126  d :     0.295050
      dxz     :     0.066238
      dyz     :     0.052552
      dx2y2   :     0.055747
      dxy     :     0.046386
      f0      :     0.005323  f :     0.028441
      f+1     :     0.005259
      f-1     :     0.002686
      f+2     :     0.003987
      f-2     :     0.005896
      f+3     :     0.002609
      f-3     :     0.002679

  2 C s       :     3.147548  s :     3.147548
      pz      :     0.606479  p :     2.258820
      px      :     0.799413
      py      :     0.852928
      dz2     :     0.078232  d :     0.305960
      dxz     :     0.057743
      dyz     :     0.066542
      dx2y2   :     0.060223
      dxy     :     0.043220
      f0      :     0.006129  f :     0.028468
      f+1     :     0.003889
      f-1     :     0.003782
      f+2     :     0.005146
      f-2     :     0.005012
      f+3     :     0.002140
      f-3     :     0.002370

  3 C s       :     3.049510  s :     3.049510
      pz      :     0.643845  p :     2.262595
      px      :     0.799580
      py      :     0.819170
      dz2     :     0.074881  d :     0.311004
      dxz     :     0.055056
      dyz     :     0.068572
      dx2y2   :     0.053684
      dxy     :     0.058811
      f0      :     0.004964  f :     0.028023
      f+1     :     0.003902
      f-1     :     0.004504
      f+2     :     0.004710
      f-2     :     0.004540
      f+3     :     0.002705
      f-3     :     0.002698

  4 C s       :     3.225537  s :     3.225537
      pz      :     0.595745  p :     2.486671
      px      :     1.011836
      py      :     0.879090
      dz2     :     0.027534  d :     0.159197
      dxz     :     0.037518
      dyz     :     0.068828
      dx2y2   :     0.011342
      dxy     :     0.013975
      f0      :     0.003032  f :     0.017914
      f+1     :     0.004614
      f-1     :     0.005603
      f+2     :     0.001191
      f-2     :     0.000603
      f+3     :     0.001352
      f-3     :     0.001519

  5 C s       :     3.090669  s :     3.090669
      pz      :     0.649490  p :     2.282759
      px      :     0.766188
      py      :     0.867081
      dz2     :     0.049705  d :     0.296526
      dxz     :     0.068773
      dyz     :     0.064015
      dx2y2   :     0.054729
      dxy     :     0.059303
      f0      :     0.005001  f :     0.027571
      f+1     :     0.005463
      f-1     :     0.005083
      f+2     :     0.001726
      f-2     :     0.002977
      f+3     :     0.004944
      f-3     :     0.002378

  6 C s       :     3.123269  s :     3.123269
      pz      :     0.694040  p :     2.279353
      px      :     0.731316
      py      :     0.853997
      dz2     :     0.049389  d :     0.266346
      dxz     :     0.057232
      dyz     :     0.060083
      dx2y2   :     0.054382
      dxy     :     0.045260
      f0      :     0.005737  f :     0.026820
      f+1     :     0.003950
      f-1     :     0.003744
      f+2     :     0.001964
      f-2     :     0.004233
      f+3     :     0.004456
      f-3     :     0.002735

  7 C s       :     3.043142  s :     3.043142
      pz      :     0.837410  p :     2.459878
      px      :     0.762114
      py      :     0.860354
      dz2     :     0.032616  d :     0.258881
      dxz     :     0.044167
      dyz     :     0.048295
      dx2y2   :     0.079437
      dxy     :     0.054366
      f0      :     0.002673  f :     0.024318
      f+1     :     0.003491
      f-1     :     0.001352
      f+2     :     0.002006
      f-2     :     0.005407
      f+3     :     0.003871
      f-3     :     0.005518

  8 F s       :     3.912691  s :     3.912691
      pz      :     1.757693  p :     5.207092
      px      :     1.587592
      py      :     1.861807
      dz2     :     0.002318  d :     0.016168
      dxz     :     0.005743
      dyz     :     0.001416
      dx2y2   :     0.003804
      dxy     :     0.002888
      f0      :     0.000085  f :     0.000759
      f+1     :     0.000152
      f-1     :     0.000016
      f+2     :     0.000184
      f-2     :     0.000127
      f+3     :     0.000099
      f-3     :     0.000097

  9 F s       :     3.911277  s :     3.911277
      pz      :     1.500090  p :     5.205583
      px      :     1.880636
      py      :     1.824857
      dz2     :     0.006639  d :     0.016318
      dxz     :     0.003365
      dyz     :     0.004942
      dx2y2   :     0.000798
      dxy     :     0.000573
      f0      :     0.000231  f :     0.000772
      f+1     :     0.000134
      f-1     :     0.000264
      f+2     :     0.000075
      f-2     :     0.000055
      f+3     :     0.000005
      f-3     :     0.000006

 10 F s       :     3.911188  s :     3.911188
      pz      :     1.885627  p :     5.206086
      px      :     1.883594
      py      :     1.436865
      dz2     :     0.002313  d :     0.016188
      dxz     :     0.000191
      dyz     :     0.003420
      dx2y2   :     0.006617
      dxy     :     0.003647
      f0      :     0.000065  f :     0.000767
      f+1     :     0.000012
      f-1     :     0.000156
      f+2     :     0.000107
      f-2     :     0.000012
      f+3     :     0.000165
      f-3     :     0.000250

 11 F s       :     3.917490  s :     3.917490
      pz      :     1.711472  p :     5.214440
      px      :     1.621085
      py      :     1.881883
      dz2     :     0.002552  d :     0.015965
      dxz     :     0.006084
      dyz     :     0.001748
      dx2y2   :     0.003236
      dxy     :     0.002344
      f0      :     0.000074  f :     0.000711
      f+1     :     0.000183
      f-1     :     0.000020
      f+2     :     0.000193
      f-2     :     0.000111
      f+3     :     0.000073
      f-3     :     0.000057

 12 F s       :     3.915621  s :     3.915621
      pz      :     1.580903  p :     5.214253
      px      :     1.874934
      py      :     1.758416
      dz2     :     0.004594  d :     0.016048
      dxz     :     0.002757
      dyz     :     0.005852
      dx2y2   :     0.001631
      dxy     :     0.001214
      f0      :     0.000121  f :     0.000721
      f+1     :     0.000081
      f-1     :     0.000257
      f+2     :     0.000130
      f-2     :     0.000096
      f+3     :     0.000016
      f-3     :     0.000020

 13 F s       :     3.920554  s :     3.920554
      pz      :     1.580875  p :     5.222668
      px      :     1.745216
      py      :     1.896576
      dz2     :     0.004488  d :     0.015891
      dxz     :     0.005908
      dyz     :     0.002596
      dx2y2   :     0.001620
      dxy     :     0.001279
      f0      :     0.000120  f :     0.000705
      f+1     :     0.000263
      f-1     :     0.000066
      f+2     :     0.000130
      f-2     :     0.000088
      f+3     :     0.000021
      f-3     :     0.000016

 14 F s       :     3.922249  s :     3.922249
      pz      :     1.649644  p :     5.220332
      px      :     1.796132
      py      :     1.774556
      dz2     :     0.003277  d :     0.015962
      dxz     :     0.003919
      dyz     :     0.004475
      dx2y2   :     0.001994
      dxy     :     0.002297
      f0      :     0.000083  f :     0.000704
      f+1     :     0.000117
      f-1     :     0.000148
      f+2     :     0.000106
      f-2     :     0.000174
      f+3     :     0.000042
      f-3     :     0.000034

 15 F s       :     3.918418  s :     3.918418
      pz      :     1.551074  p :     5.218541
      px      :     1.772468
      py      :     1.894999
      dz2     :     0.005110  d :     0.015631
      dxz     :     0.005548
      dyz     :     0.002699
      dx2y2   :     0.001201
      dxy     :     0.001072
      f0      :     0.000147  f :     0.000701
      f+1     :     0.000263
      f-1     :     0.000083
      f+2     :     0.000104
      f-2     :     0.000079
      f+3     :     0.000012
      f-3     :     0.000013

 16 F s       :     3.918435  s :     3.918435
      pz      :     1.736862  p :     5.225750
      px      :     1.770910
      py      :     1.717978
      dz2     :     0.002217  d :     0.015225
      dxz     :     0.003251
      dyz     :     0.004022
      dx2y2   :     0.002444
      dxy     :     0.003291
      f0      :     0.000072  f :     0.000676
      f+1     :     0.000067
      f-1     :     0.000103
      f+2     :     0.000092
      f-2     :     0.000198
      f+3     :     0.000082
      f-3     :     0.000063

 17 F s       :     3.919048  s :     3.919048
      pz      :     1.450507  p :     5.198934
      px      :     1.841284
      py      :     1.907143
      dz2     :     0.008309  d :     0.017292
      dxz     :     0.004937
      dyz     :     0.003833
      dx2y2   :     0.000111
      dxy     :     0.000102
      f0      :     0.000370  f :     0.000747
      f+1     :     0.000204
      f-1     :     0.000165
      f+2     :     0.000004
      f-2     :     0.000003
      f+3     :     0.000001
      f-3     :     0.000001

 18 F s       :     3.921790  s :     3.921790
      pz      :     1.449563  p :     5.240805
      px      :     1.889241
      py      :     1.902000
      dz2     :     0.007784  d :     0.015180
      dxz     :     0.003387
      dyz     :     0.003501
      dx2y2   :     0.000206
      dxy     :     0.000303
      f0      :     0.000327  f :     0.000673
      f+1     :     0.000161
      f-1     :     0.000155
      f+2     :     0.000011
      f-2     :     0.000016
      f+3     :     0.000002
      f-3     :     0.000001

 19 F s       :     3.917951  s :     3.917951
      pz      :     1.883826  p :     5.240230
      px      :     1.572461
      py      :     1.783943
      dz2     :     0.002087  d :     0.014661
      dxz     :     0.002295
      dyz     :     0.000972
      dx2y2   :     0.004067
      dxy     :     0.005241
      f0      :     0.000055  f :     0.000659
      f+1     :     0.000098
      f-1     :     0.000040
      f+2     :     0.000028
      f-2     :     0.000083
      f+3     :     0.000137
      f-3     :     0.000219

 20 F s       :     3.914905  s :     3.914905
      pz      :     1.511446  p :     5.267523
      px      :     1.878635
      py      :     1.877442
      dz2     :     0.006072  d :     0.014578
      dxz     :     0.003309
      dyz     :     0.004008
      dx2y2   :     0.000571
      dxy     :     0.000618
      f0      :     0.000210  f :     0.000657
      f+1     :     0.000149
      f-1     :     0.000189
      f+2     :     0.000044
      f-2     :     0.000057
      f+3     :     0.000004
      f-3     :     0.000004

 21 F s       :     3.916315  s :     3.916315
      pz      :     1.893745  p :     5.265447
      px      :     1.636296
      py      :     1.735406
      dz2     :     0.002005  d :     0.014660
      dxz     :     0.002032
      dyz     :     0.001164
      dx2y2   :     0.003625
      dxy     :     0.005835
      f0      :     0.000053  f :     0.000657
      f+1     :     0.000087
      f-1     :     0.000056
      f+2     :     0.000013
      f-2     :     0.000087
      f+3     :     0.000156
      f-3     :     0.000205

 22 O s       :     3.793536  s :     3.793536
      pz      :     1.486349  p :     4.635360
      px      :     1.411866
      py      :     1.737145
      dz2     :     0.005899  d :     0.027768
      dxz     :     0.008070
      dyz     :     0.002419
      dx2y2   :     0.006159
      dxy     :     0.005221
      f0      :     0.000144  f :     0.001801
      f+1     :     0.000485
      f-1     :     0.000030
      f+2     :     0.000353
      f-2     :     0.000269
      f+3     :     0.000265
      f-3     :     0.000254

 23 O s       :     3.827402  s :     3.827402
      pz      :     1.647170  p :     4.668297
      px      :     1.486049
      py      :     1.535078
      dz2     :     0.002632  d :     0.025086
      dxz     :     0.003551
      dyz     :     0.004317
      dx2y2   :     0.007207
      dxy     :     0.007379
      f0      :     0.000198  f :     0.001729
      f+1     :     0.000130
      f-1     :     0.000142
      f+2     :     0.000029
      f-2     :     0.000336
      f+3     :     0.000422
      f-3     :     0.000471

 24 O s       :     3.807228  s :     3.807228
      pz      :     1.656002  p :     4.911780
      px      :     1.664174
      py      :     1.591603
      dz2     :     0.000888  d :     0.020047
      dxz     :     0.007255
      dyz     :     0.002228
      dx2y2   :     0.003096
      dxy     :     0.006581
      f0      :     0.000258  f :     0.001316
      f+1     :     0.000060
      f-1     :     0.000146
      f+2     :     0.000201
      f-2     :     0.000488
      f+3     :     0.000128
      f-3     :     0.000035

 25 H s       :     0.624124  s :     0.624124
      pz      :     0.015169  p :     0.044966
      px      :     0.013279
      py      :     0.016517

 26 H s       :     0.589996  s :     0.589996
      pz      :     0.019278  p :     0.052814
      px      :     0.020187
      py      :     0.013348


SPIN
  0 C s       :     0.001110  s :     0.001110
      pz      :     0.000198  p :     0.001435
      px      :     0.001398
      py      :    -0.000162
      dz2     :     0.000001  d :     0.000260
      dxz     :     0.000009
      dyz     :     0.000025
      dx2y2   :     0.000218
      dxy     :     0.000006
      f0      :    -0.000001  f :     0.000019
      f+1     :    -0.000001
      f-1     :     0.000000
      f+2     :     0.000004
      f-2     :     0.000000
      f+3     :     0.000016
      f-3     :    -0.000000

  1 C s       :    -0.000713  s :    -0.000713
      pz      :     0.000500  p :     0.005722
      px      :     0.000967
      py      :     0.004256
      dz2     :     0.000040  d :     0.000852
      dxz     :     0.000140
      dyz     :     0.000096
      dx2y2   :     0.000041
      dxy     :     0.000534
      f0      :    -0.000001  f :     0.000024
      f+1     :     0.000001
      f-1     :    -0.000003
      f+2     :    -0.000003
      f-2     :     0.000004
      f+3     :     0.000025
      f-3     :     0.000001

  2 C s       :     0.000219  s :     0.000219
      pz      :     0.001313  p :     0.028865
      px      :     0.020282
      py      :     0.007271
      dz2     :     0.000385  d :     0.004990
      dxz     :     0.000180
      dyz     :     0.000980
      dx2y2   :     0.002640
      dxy     :     0.000806
      f0      :    -0.000003  f :    -0.000005
      f+1     :    -0.000005
      f-1     :    -0.000005
      f+2     :    -0.000002
      f-2     :    -0.000003
      f+3     :     0.000013
      f-3     :     0.000000

  3 C s       :    -0.010590  s :    -0.010590
      pz      :    -0.008441  p :    -0.037905
      px      :    -0.003996
      py      :    -0.025468
      dz2     :     0.000517  d :     0.021648
      dxz     :     0.003495
      dyz     :     0.000510
      dx2y2   :    -0.000981
      dxy     :     0.018107
      f0      :     0.000011  f :     0.001130
      f+1     :     0.000018
      f-1     :     0.000015
      f+2     :    -0.000024
      f-2     :     0.000519
      f+3     :     0.000575
      f-3     :     0.000015

  4 C s       :     0.057130  s :     0.057130
      pz      :     0.016712  p :     0.797643
      px      :     0.743377
      py      :     0.037553
      dz2     :     0.000518  d :     0.004026
      dxz     :     0.003776
      dyz     :     0.000685
      dx2y2   :    -0.002762
      dxy     :     0.001808
      f0      :    -0.000462  f :    -0.002223
      f+1     :    -0.000429
      f-1     :     0.000016
      f+2     :    -0.000490
      f-2     :     0.000041
      f+3     :    -0.000145
      f-3     :    -0.000755

  5 C s       :    -0.012274  s :    -0.012274
      pz      :    -0.005746  p :    -0.017760
      px      :     0.010996
      py      :    -0.023011
      dz2     :     0.000214  d :     0.014742
      dxz     :     0.000456
      dyz     :    -0.000951
      dx2y2   :    -0.000989
      dxy     :     0.016012
      f0      :    -0.000004  f :     0.001326
      f+1     :    -0.000002
      f-1     :     0.000027
      f+2     :    -0.000027
      f-2     :     0.000468
      f+3     :     0.000779
      f-3     :     0.000085

  6 C s       :    -0.001078  s :    -0.001078
      pz      :     0.000202  p :     0.009291
      px      :     0.012084
      py      :    -0.002996
      dz2     :    -0.000020  d :     0.000513
      dxz     :     0.000004
      dyz     :    -0.000024
      dx2y2   :     0.000328
      dxy     :     0.000225
      f0      :    -0.000004  f :     0.000058
      f+1     :    -0.000003
      f-1     :    -0.000004
      f+2     :     0.000023
      f-2     :    -0.000001
      f+3     :     0.000025
      f-3     :     0.000022

  7 C s       :    -0.000675  s :    -0.000675
      pz      :     0.000470  p :     0.000672
      px      :    -0.000098
      py      :     0.000300
      dz2     :     0.000147  d :     0.000077
      dxz     :     0.000023
      dyz     :     0.000090
      dx2y2   :    -0.000010
      dxy     :    -0.000174
      f0      :    -0.000002  f :     0.000042
      f+1     :     0.000002
      f-1     :     0.000007
      f+2     :     0.000004
      f-2     :     0.000006
      f+3     :     0.000011
      f-3     :     0.000015

  8 F s       :     0.000008  s :     0.000008
      pz      :    -0.000006  p :    -0.000081
      px      :    -0.000078
      py      :     0.000003
      dz2     :     0.000000  d :     0.000002
      dxz     :     0.000000
      dyz     :     0.000001
      dx2y2   :     0.000000
      dxy     :     0.000000
      f0      :     0.000000  f :     0.000000
      f+1     :     0.000000
      f-1     :     0.000000
      f+2     :    -0.000000
      f-2     :     0.000000
      f+3     :     0.000000
      f-3     :     0.000000

  9 F s       :    -0.000003  s :    -0.000003
      pz      :    -0.000046  p :     0.000034
      px      :     0.000095
      py      :    -0.000016
      dz2     :     0.000000  d :     0.000002
      dxz     :     0.000001
      dyz     :    -0.000000
      dx2y2   :     0.000000
      dxy     :     0.000001
      f0      :    -0.000000  f :     0.000000
      f+1     :     0.000000
      f-1     :    -0.000000
      f+2     :     0.000000
      f-2     :     0.000000
      f+3     :    -0.000000
      f-3     :     0.000000

 10 F s       :     0.000003  s :     0.000003
      pz      :     0.000084  p :     0.000791
      px      :     0.000333
      py      :     0.000374
      dz2     :    -0.000000  d :     0.000004
      dxz     :     0.000000
      dyz     :     0.000001
      dx2y2   :    -0.000000
[...]
 21:    179.97   0.001683    8.50  0.002918  (-0.012578 -0.020716 -0.048277)
 22:    185.01   0.002460   12.43  0.004149  ( 0.054811  0.023184  0.024646)
 23:    194.64   0.001788    9.04  0.002867  ( 0.032484  0.036587 -0.021756)
 24:    208.26   0.000643    3.25  0.000963  (-0.016460 -0.014801 -0.021750)
 25:    219.46   0.000511    2.58  0.000727  ( 0.014117  0.019417  0.012256)
 26:    233.62   0.000115    0.58  0.000154  ( 0.011513 -0.003597  0.002866)
 27:    234.63   0.000085    0.43  0.000112  (-0.007240 -0.007011  0.003293)
 28:    255.20   0.002169   10.96  0.002652  ( 0.024730  0.040991  0.018976)
 29:    272.61   0.000524    2.65  0.000600  (-0.005867  0.022550 -0.007571)
 30:    278.60   0.001049    5.30  0.001175  ( 0.005861  0.031323  0.012648)
 31:    306.14   0.000144    0.73  0.000147  (-0.005672  0.009837  0.004245)
 32:    319.77   0.000203    1.03  0.000198  ( 0.004660 -0.012500 -0.004486)
 33:    336.11   0.000121    0.61  0.000112  ( 0.003840  0.002200  0.009618)
 34:    348.37   0.000028    0.14  0.000025  ( 0.002555 -0.004298 -0.000472)
 35:    354.48   0.000359    1.81  0.000316  ( 0.001698  0.003511  0.017345)
 36:    361.46   0.001929    9.75  0.001666  (-0.002279 -0.038037 -0.014618)
 37:    367.20   0.000044    0.22  0.000037  ( 0.002362  0.005252 -0.002063)
 38:    388.57   0.000144    0.73  0.000116  (-0.006993 -0.002323  0.007849)
 39:    404.50   0.019391   97.99  0.014960  (-0.031167 -0.083708 -0.083555)
 40:    426.64   0.000499    2.52  0.000365  ( 0.004053 -0.007609 -0.017039)
 41:    443.35   0.002021   10.21  0.001423  (-0.011134  0.019549  0.030272)
 42:    500.55   0.000330    1.67  0.000206  (-0.012548 -0.003050  0.006255)
 43:    515.97   0.007579   38.30  0.004584  (-0.010895  0.066009  0.010390)
 44:    539.03   0.000830    4.19  0.000480  ( 0.005478  0.018621 -0.010176)
 45:    543.49   0.004695   23.73  0.002696  (-0.014996  0.037372  0.032774)
 46:    561.29   0.003849   19.45  0.002140  (-0.041711  0.017415 -0.009848)
 47:    575.20   0.007132   36.04  0.003869  ( 0.038311  0.048659  0.005813)
 48:    589.72   0.001944    9.83  0.001029  (-0.013132  0.024556  0.015918)
 49:    616.83   0.007567   38.24  0.003828  (-0.000118  0.061124  0.009596)
 50:    641.59   0.009643   48.73  0.004690  ( 0.014372 -0.066870  0.003448)
 51:    679.47   0.018794   94.98  0.008632  ( 0.007536  0.091512  0.014157)
 52:    687.70   0.007334   37.06  0.003328  (-0.053007 -0.000851 -0.022746)
 53:    716.99   0.021440  108.35  0.009332  ( 0.070888  0.060225  0.026066)
 54:    730.36   0.019962  100.88  0.008529  (-0.031005 -0.063000  0.059990)
 55:    766.10   0.006666   33.69  0.002715  (-0.021453 -0.046840 -0.007820)
 56:    791.63   0.026361  133.22  0.010392  ( 0.015926 -0.069943  0.072430)
 57:    856.64   0.009267   46.83  0.003376  ( 0.047605  0.027016  0.019487)
 58:    980.97   0.004292   21.69  0.001365  ( 0.024735 -0.010365 -0.025417)
 59:   1032.81   0.037103  187.50  0.011211  (-0.052595 -0.091881  0.001494)
 60:   1078.25   0.055789  281.94  0.016146  ( 0.111618  0.038116  0.047273)
 61:   1085.11   0.027726  140.12  0.007974  (-0.054649 -0.056888 -0.041842)
 62:   1094.99   0.025730  130.03  0.007333  (-0.047225  0.021568  0.068099)
 63:   1111.03   0.086980  439.56  0.024431  ( 0.139814 -0.056415  0.041232)
 64:   1122.33   0.048146  243.31  0.013387  (-0.028577 -0.011933  0.111480)
 65:   1132.34   0.003876   19.59  0.001068  ( 0.027696  0.003362 -0.017026)
 66:   1137.11   0.045204  228.44  0.012406  (-0.006864 -0.014046  0.110278)
 67:   1146.95   0.070196  354.74  0.019099  ( 0.015221 -0.077624  0.113321)
 68:   1156.60   0.124840  630.89  0.033683  ( 0.105919 -0.047693 -0.142090)
 69:   1174.06   0.061009  308.32  0.016216  ( 0.020948  0.073208 -0.102069)
 70:   1177.44   0.018694   94.47  0.004954  (-0.002737  0.007134  0.069972)
 71:   1198.93   0.022037  111.37  0.005736  ( 0.002081 -0.074869  0.011237)
 72:   1248.29   0.003571   18.05  0.000893  ( 0.006790 -0.027476  0.009578)
 73:   1308.97   0.018049   91.21  0.004303  (-0.040373 -0.006999 -0.051226)
 74:   1317.82   0.019172   96.89  0.004540  ( 0.005416  0.061725  0.026471)
 75:   1335.95   0.076696  387.59  0.017915  ( 0.010278 -0.125006  0.046724)
 76:   1378.70   0.011339   57.30  0.002567  (-0.010112 -0.047027 -0.015897)
 77:   1662.24   0.026802  135.45  0.005032  (-0.068237  0.011279 -0.015756)
 78:   1713.69   0.180481  912.07  0.032866  (-0.146752 -0.078819 -0.071533)
 79:   3398.38   0.218677  1105.10  0.020080  (-0.094705 -0.070738 -0.078151)
 80:   3790.84   0.013883   70.16  0.001143  ( 0.003513  0.026125  0.021165)

* The epsilon (eps) is given for a Dirac delta lineshape.
** The dipole moment derivative (T) already includes vibrational overlap.

The first frequency considered to be a vibration is 6
The total number of vibrations considered is 75


--------------------------
THERMOCHEMISTRY AT 298.15K
--------------------------

Temperature         ...   298.15 K
Pressure            ...     1.00 atm
Total Mass          ...   412.07 AMU
Quasi RRHO          ...     True
Cut-Off Frequency   ...     1.00 cm^-1

Throughout the following assumptions are being made:
  (1) The electronic state is orbitally nondegenerate
      but the spin degeneracy is treated
  (2) There are no thermally accessible electronically excited states
  (3) Hindered rotations indicated by low frequency modes are not
      treated as such but are treated as vibrations and this may
      cause some error
  (4) All equations used are the standard statistical mechanics
      equations for an ideal gas
  (5) All vibrations are strictly harmonic

freq.      17.46  E(vib)   ...       0.57 
freq.      22.77  E(vib)   ...       0.56 
freq.      28.82  E(vib)   ...       0.55 
freq.      37.61  E(vib)   ...       0.54 
freq.      40.59  E(vib)   ...       0.54 
freq.      51.17  E(vib)   ...       0.52 
freq.      54.13  E(vib)   ...       0.52 
freq.      57.45  E(vib)   ...       0.51 
freq.      63.43  E(vib)   ...       0.51 
freq.      83.41  E(vib)   ...       0.48 
freq.      84.95  E(vib)   ...       0.48 
freq.     103.85  E(vib)   ...       0.46 
freq.     118.34  E(vib)   ...       0.44 
freq.     161.34  E(vib)   ...       0.39 
freq.     168.89  E(vib)   ...       0.38 
freq.     179.97  E(vib)   ...       0.37 
freq.     185.01  E(vib)   ...       0.37 
freq.     194.64  E(vib)   ...       0.36 
freq.     208.26  E(vib)   ...       0.34 
freq.     219.46  E(vib)   ...       0.33 
freq.     233.62  E(vib)   ...       0.32 
freq.     234.63  E(vib)   ...       0.32 
freq.     255.20  E(vib)   ...       0.30 
freq.     272.61  E(vib)   ...       0.29 
freq.     278.60  E(vib)   ...       0.28 
freq.     306.14  E(vib)   ...       0.26 
freq.     319.77  E(vib)   ...       0.25 
freq.     336.11  E(vib)   ...       0.24 
freq.     348.37  E(vib)   ...       0.23 
freq.     354.48  E(vib)   ...       0.22 
freq.     361.46  E(vib)   ...       0.22 
freq.     367.20  E(vib)   ...       0.22 
freq.     388.57  E(vib)   ...       0.20 
freq.     404.50  E(vib)   ...       0.19 
freq.     426.64  E(vib)   ...       0.18 
freq.     443.35  E(vib)   ...       0.17 
freq.     500.55  E(vib)   ...       0.14 
freq.     515.97  E(vib)   ...       0.13 
freq.     539.03  E(vib)   ...       0.12 
freq.     543.49  E(vib)   ...       0.12 
freq.     561.29  E(vib)   ...       0.11 
freq.     575.20  E(vib)   ...       0.11 
freq.     589.72  E(vib)   ...       0.10 
freq.     616.83  E(vib)   ...       0.09 
freq.     641.59  E(vib)   ...       0.09 
freq.     679.47  E(vib)   ...       0.08 
freq.     687.70  E(vib)   ...       0.07 
freq.     716.99  E(vib)   ...       0.07 
freq.     730.36  E(vib)   ...       0.06 
freq.     766.10  E(vib)   ...       0.06 
freq.     791.63  E(vib)   ...       0.05 
freq.     856.64  E(vib)   ...       0.04 
freq.     980.97  E(vib)   ...       0.02 
freq.    1032.81  E(vib)   ...       0.02 
freq.    1078.25  E(vib)   ...       0.02 
freq.    1085.11  E(vib)   ...       0.02 
freq.    1094.99  E(vib)   ...       0.02 
freq.    1111.03  E(vib)   ...       0.01 
freq.    1122.33  E(vib)   ...       0.01 
freq.    1132.34  E(vib)   ...       0.01 
freq.    1137.11  E(vib)   ...       0.01 
freq.    1146.95  E(vib)   ...       0.01 
freq.    1156.60  E(vib)   ...       0.01 
freq.    1174.06  E(vib)   ...       0.01 
freq.    1177.44  E(vib)   ...       0.01 
freq.    1198.93  E(vib)   ...       0.01 
freq.    1248.29  E(vib)   ...       0.01 
freq.    1308.97  E(vib)   ...       0.01 
freq.    1317.82  E(vib)   ...       0.01 
freq.    1335.95  E(vib)   ...       0.01 
freq.    1378.70  E(vib)   ...       0.01 
freq.    1662.24  E(vib)   ...       0.00 
freq.    1713.69  E(vib)   ...       0.00 
freq.    3398.38  E(vib)   ...       0.00 
freq.    3790.84  E(vib)   ...       0.00 

------------
INNER ENERGY
------------

The inner energy is: U= E(el) + E(ZPE) + E(vib) + E(rot) + E(trans)
    E(el)   - is the total energy from the electronic structure calculation
              = E(kin-el) + E(nuc-el) + E(el-el) + E(nuc-nuc)
    E(ZPE)  - the the zero temperature vibrational energy from the frequency calculation
    E(vib)  - the the finite temperature correction to E(ZPE) due to population
              of excited vibrational states
    E(rot)  - is the rotational thermal energy
    E(trans)- is the translational thermal energy

Summary of contributions to the inner energy U:
Electronic energy                ...  -1930.42999344 Eh
Zero point energy                ...      0.11506844 Eh      72.21 kcal/mol
Thermal vibrational correction   ...      0.02358584 Eh      14.80 kcal/mol
Thermal rotational correction    ...      0.00141627 Eh       0.89 kcal/mol
Thermal translational correction ...      0.00141627 Eh       0.89 kcal/mol
-----------------------------------------------------------------------
Total thermal energy                  -1930.28850663 Eh


Summary of corrections to the electronic energy:
(perhaps to be used in another calculation)
Total thermal correction                  0.02641838 Eh      16.58 kcal/mol
Non-thermal (ZPE) correction              0.11506844 Eh      72.21 kcal/mol
-----------------------------------------------------------------------
Total correction                          0.14148682 Eh      88.78 kcal/mol


--------
ENTHALPY
--------

The enthalpy is H = U + kB*T
                kB is Boltzmann's constant
Total thermal energy              ...  -1930.28850663 Eh 
Thermal Enthalpy correction       ...      0.00094421 Eh       0.59 kcal/mol
-----------------------------------------------------------------------
Total Enthalpy                    ...  -1930.28756242 Eh


Note: Only C1 symmetry has been detected, increase convergence thresholds 
      if your molecule has a higher symmetry. Symmetry factor of 1.0 is   
      used for the rotational entropy correction. 
 

Note: Rotational entropy computed according to Herzberg 
Infrared and Raman Spectra, Chapter V,1, Van Nostrand Reinhold, 1945 
Point Group:  C1, Symmetry Number:   1  
Rotational constants in cm-1:     0.016045     0.003921     0.003657 

Vibrational entropy computed according to the QRRHO of S. Grimme
Chem.Eur.J. 2012 18 9955 using a reference frequency of 100.0 cm-1


-------
ENTROPY
-------

The entropy contributions are T*S = T*(S(el)+S(vib)+S(rot)+S(trans))
     S(el)   - electronic entropy
     S(vib)  - vibrational entropy
     S(rot)  - rotational entropy
     S(trans)- translational entropy
The entropies will be listed as multiplied by the temperature to get
units of energy

Electronic entropy                ...      0.00065446 Eh      0.41 kcal/mol
Vibrational entropy               ...      0.04342132 Eh     27.25 kcal/mol
Rotational entropy                ...      0.01672667 Eh     10.50 kcal/mol
Translational entropy             ...      0.02087673 Eh     13.10 kcal/mol
-----------------------------------------------------------------------
Final entropy term                ...      0.08167917 Eh     51.25 kcal/mol

In case the symmetry of your molecule has not been determined correctly
or in case you have a reason to use a different symmetry number we print 
out the resulting rotational entropy values for sn=1,12:

 non-linear molecules -----------------------------------
|  sn= 1 | S(rot)=       0.01672667 Eh     10.50 kcal/mol|
|  sn= 2 | S(rot)=       0.01607221 Eh     10.09 kcal/mol|
|  sn= 3 | S(rot)=       0.01568938 Eh      9.85 kcal/mol|
|  sn= 4 | S(rot)=       0.01541775 Eh      9.67 kcal/mol|
|  sn= 5 | S(rot)=       0.01520707 Eh      9.54 kcal/mol|
|  sn= 6 | S(rot)=       0.01503492 Eh      9.43 kcal/mol|
|  sn= 7 | S(rot)=       0.01488938 Eh      9.34 kcal/mol|
|  sn= 8 | S(rot)=       0.01476330 Eh      9.26 kcal/mol|
|  sn= 9 | S(rot)=       0.01465209 Eh      9.19 kcal/mol|
|  sn=10 | S(rot)=       0.01455261 Eh      9.13 kcal/mol|
|  sn=11 | S(rot)=       0.01446262 Eh      9.08 kcal/mol|
|  sn=12 | S(rot)=       0.01438047 Eh      9.02 kcal/mol|
 linear molecules ---------------------------------------
|  Dinfh | S(rot)=       0.01062377 Eh      6.67 kcal/mol|
|  Cinfv | S(rot)=       0.01127822 Eh      7.08 kcal/mol|
 --------------------------------------------------------


-------------------
GIBBS FREE ENERGY
-------------------

The Gibbs free energy is G = H - T*S

Total enthalpy                    ...  -1930.28756242 Eh 
Total entropy correction          ...     -0.08167917 Eh    -51.25 kcal/mol
-----------------------------------------------------------------------
Final Gibbs free energy         ...  -1930.36924159 Eh

For completeness - the Gibbs free energy minus the electronic energy
G-E(el)                           ...      0.06075186 Eh     38.12 kcal/mol


Maximum memory used throughout the entire PROP-calculation: 611.2 MB

--------------------------------
SUGGESTED CITATIONS FOR THIS RUN
--------------------------------

Below you find a list of papers that are relevant to this ORCA run
We neither can nor want to force you to cite these papers, but we appreciate if you do
You receive ORCA, which is the product of decades of hard work by many enthusiastic individuals, for free
The only thing we kindly ask in return is that you cite our papers,
We deeply appreciate it, if you show your appreciation for ORCA by not just citing the generic ORCA reference.

Please note that relegating all ORCA citations to the supporting information does *not* help us.
SI sections are not indexed - citations you put there will not count into any citation statistics
But we need these citations in order to attract the funding resources that allow us to do what we are doing

Therefore, if you are a happy ORCA user, please consider citing a few of the papers listed below in the main body of your paper

In addition to the list printed below, the program has created the file rf_mecn_1H2O_freq_TP_con_02.bibtex that contains the list in bibtex format
You can import this file easily into all common literature databanks and citation aid programs


List of essential papers. We consider these as the minimum necessary citations

  1. Neese,F.
     Software update: the ORCA program system, version 5.0
     WIRES Comput. Molec. Sci., 2022 12(1)e1606
     doi.org/10.1002/wcms.1606

List of papers to cite with high priority. The work reported in these papers was absolutely
necessary for this run to complete.
Our perspective: the developers of density functionals and basis sets usually get cited in chemistry papers
Good! But without the algorithms to do something with them, the functionals or basis sets would not do anything.
Hence, in our opinion, the algorithm design and method developments papers are equally worthy of getting cited

  1. Neese,F.
     An improvement of the resolution of the identity approximation for the formation of the Coulomb matrix
     J. Comp. Chem., 2003 24(14)1740-1747
     doi.org/10.1002/jcc.10318
  2. Neese,F.; Wennmohs,F.; Hansen,A.; Becker,U.
     Efficient, approximate and parallel Hartree-Fock and hybrid DFT calculations. A 'chain-of-spheres' algorithm for the Hartree-Fock exchange
     Chem. Phys., 2009 356(1-3)98-109
     doi.org/10.1016/j.chemphys.2008.10.036
  3. Bykov,D.; Petrenko,T.; Izsak,R.; Kossmann,S.; Becker,U.; Valeev,E.; Neese,F.
     Efficient implementation of the analytic second derivatives of Hartree-Fock and hybrid DFT energies: a detailed analysis of different approximations
     Molec. Phys., 2015 113 1961-1977
     doi.org/10.1080/00268976.2015.1025114
  4. Garcia-Rates,M.; Neese,F.
     Efficient implementation of the analytical second derivatives of hartree-fock and hybrid DFT energies within the framework of the conductor-like polarizable continuum model
     J. Comput. Chem., 2019 40 1816-1828
     doi.org/10.1002/jcc.25833
  5. Garcia-Rates,M.; Neese,F.
     Effect of the Solute Cavity on the Solvation Energy and its Derivatives within the Framework of the Gaussian Charge Scheme
     J. Comput. Chem., 2020 41 922-939
     doi.org/10.1002/jcc.26139
  6. Helmich-Paris,B.; de Souza,B.; Neese,F.; Izsák,R.
     An improved chain of spheres for exchange algorithm
     J. Chem. Phys., 2021 155 104109
     doi.org/doi: 10.1063/5.0058766.
  7. Neese,F.
     The SHARK Integral Generation and Digestion System
     J. Comp. Chem., 2022  1-16
     doi.org/10.1002/jcc.26942
  8. Grimme,S.; Antony,J.; Ehrlich,S.; Krieg,H.
     A consistent and accurate ab initio parametrization of density functional dispersion correction (DFT-D) for the 94 elements H-Pu
     J. Chem. Phys., 2010 132 154104
     doi.org/10.1063/1.3382344
  9. Grimme,S.; Ehrlich,S.; Goerigk,L.
     Effect of the damping function in dispersion corrected density functional theory
     J. Comput. Chem., 2011 32(7)1456-1465
     doi.org/10.1002/jcc.21759

List of suggested additional citations. These are papers that are important in the 'surrounding' of 
of this run, or papers that preceded the highly important papers. If you like your results we are grateful for a citation.

  1. Izsak,R.; Neese,F.
     An overlap fitted chain of spheres exchange method
     J. Chem. Phys., 2011 135 144105
     doi.org/10.1063/1.3646921
  2. Izsak,R.; Hansen,A.; Neese,F.
     The resolution of identity and chain of spheres approximations for the LPNO-CCSD singles Fock term
     Molec. Phys., 2012 110 2413-2417
     doi.org/10.1080/00268976.2012.687466
  3. Neese,F.
     The ORCA program system
     WIRES Comput. Molec. Sci., 2012 2(1)73-78
     doi.org/10.1002/wcms.81
  4. Izsak,R.; Neese,F.; Klopper,W.
     Robust fitting techniques in the chain of spheres approximation to the Fock exchange: The role of the complementary space
     J. Chem. Phys., 2013 139 
     doi.org/10.1063/1.4819264
  5. Neese,F.
     Software update: the ORCA program system, version 4.0
     WIRES Comput. Molec. Sci., 2018 8(1)1-6
     doi.org/10.1002/wcms.1327
  6. Neese,F.; Wennmohs,F.; Becker,U.; Riplinger,C.
     The ORCA quantum chemistry program package
     J. Chem. Phys., 2020 152 Art. No. L224108
     doi.org/10.1063/5.0004608

List of optional additional citations

  1. Neese,F.
     Approximate second-order SCF convergence for spin unrestricted wavefunctions
     Chem. Phys. Lett., 2000 325(1-3)93-98
     doi.org/10.1016/s0009-2614(00)00662-x

Timings for individual modules:

Sum of individual times          ...     1517.887 sec (=  25.298 min)
Startup calculation              ...        4.255 sec (=   0.071 min)   0.3 %
SCF iterations                   ...       96.594 sec (=   1.610 min)   6.4 %
Property integrals               ...      436.569 sec (=   7.276 min)  28.8 %
SCF Response                     ...      730.871 sec (=  12.181 min)  48.2 %
Property calculations            ...      249.598 sec (=   4.160 min)  16.4 %
                             ****ORCA TERMINATED NORMALLY****
TOTAL RUN TIME: 0 days 0 hours 25 minutes 18 seconds 803 msec
