
                                 *****************
                                 * O   R   C   A *
                                 *****************

                                            #,                                       
                                            ###                                      
                                            ####                                     
                                            #####                                    
                                            ######                                   
                                           ########,                                 
                                     ,,################,,,,,                         
                               ,,#################################,,                 
                          ,,##########################################,,             
                       ,#########################################, ''#####,          
                    ,#############################################,,   '####,        
                  ,##################################################,,,,####,       
                ,###########''''           ''''###############################       
              ,#####''   ,,,,##########,,,,          '''####'''          '####       
            ,##' ,,,,###########################,,,                        '##       
           ' ,,###''''                  '''############,,,                           
         ,,##''                                '''############,,,,        ,,,,,,###''
      ,#''                                            '''#######################'''  
     '                                                          ''''####''''         
             ,#######,   #######,   ,#######,      ##                                
            ,#'     '#,  ##    ##  ,#'     '#,    #''#        ,####,   ,####,        
            ##       ##  ##   ,#'  ##            #'  '#       #'       #'  '#        
            ##       ##  #######   ##           ,######,      #####,   #    #        
            '#,     ,#'  ##    ##  '#,     ,#' ,#      #,     #,   #   #,  ,#        
             '#######'   ##     ##  '#######'  #'      '#     '####' # '####'        



                #########################################################
                #                        -***-                          #
                #          Department of theory and spectroscopy        #
                #                                                       #
                #                      Frank Neese                      #
                #                                                       #
                #     Directorship, Architecture, Infrastructure        #
                #                    SHARK, DRIVERS                     #
                #        Core code/Algorithms in most modules           #
                #                                                       #
                #        Max Planck Institute fuer Kohlenforschung      #
                #                Kaiser Wilhelm Platz 1                 #
                #                 D-45470 Muelheim/Ruhr                 #
                #                      Germany                          #
                #                                                       #
                #                  All rights reserved                  #
                #                        -***-                          #
                #########################################################


                         Program Version 6.0.1  -  RELEASE   -


 With contributions from (in alphabetic order):
[Max-Planck-Institut fuer Kohlenforschung]                               
  Daniel Aravena         : Magnetic Suceptibility                        
  Michael Atanasov       : Ab Initio Ligand Field Theory (pilot matlab implementation)
  Alexander A. Auer      : GIAO ZORA, VPT2 properties, NMR spectrum      
  Ute Becker             : All parallelization in ORCA, NUMFREQ, NUMCALC 
  Giovanni Bistoni       : ED, misc. LED, open-shell LED, HFLD           
  Martin Brehm           : Molecular dynamics                            
  Dmytro Bykov           : pre 5.0 version of the SCF Hessian            
  Marcos Casanova-Páez   : Triplet and SCS-CIS(D). UHF-(DLPNO)-IP/EA/STEOM-CCSD. UHF-CVS-IP/STEOM-CCSD   
  Vijay G. Chilkuri      : MRCI spin determinant printing, contributions to CSF-ICE 
  Pauline Colinet        : FMM embedding                                 
  Dipayan Datta          : RHF DLPNO-CCSD density                        
  Achintya Kumar Dutta   : EOM-CC, STEOM-CC                              
  Nicolas Foglia         : Exact transition moments, OPA infrastructure, MCD improvements    
  Dmitry Ganyushin       : Spin-Orbit,Spin-Spin,Magnetic field MRCI      
  Miquel Garcia-Rates    : C-PCM and meta-GGA Hessian, CCSD/C-PCM, Gaussian charge scheme 
  Tiago L. C. Gouveia    : GS-ROHF, GS-ROCIS                             
  Yang Guo               : DLPNO-NEVPT2, F12-NEVPT2, CIM, IAO-localization        
  Andreas Hansen         : Spin unrestricted coupled pair/coupled cluster methods 
  Ingolf Harden          : AUTO-CI MPn and infrastructure                
  Benjamin Helmich-Paris : MC-RPA, TRAH-(SCF,CASSCF), AVAS, COSX integrals, SCF dyn. polar. 
  Lee Huntington         : MR-EOM, pCC                                   
  Robert Izsak           : Overlap fitted RIJCOSX, COSX-SCS-MP3, EOM     
  Riya Kayal             : Wick's Theorem for AUTO-CI, AUTO-CI UHF-CCSDT 
  Emily Kempfer          : AUTO-CI, RHF CISDT and CCSDT                  
  Christian Kollmar      : KDIIS, OOCD, Brueckner-CCSD(T), CCSD density, CASPT2, CASPT2-K, improved NEVPT2 
  Axel Koslowski         : Symmetry handling                             
  Simone Kossmann        : meta-GGA functionals, TD-DFT gradient, OOMP2, (MP2 Hessian; deprecated post 5.0) 
  Lucas Lang             : DCDCAS                                        
  Marvin Lechner         : AUTO-CI (C++ implementation), FIC-MRCC        
  Spencer Leger          : CASSCF response                               
  Dagmar Lenk            : GEPOL surface, SMD, ORCA-2-JSON               
  Dimitrios Liakos       : Extrapolation schemes; Compound Job, initial MDCI parallelization 
  Dimitrios Manganas     : Further ROCIS development; embedding schemes. LFT, Crystal Embedding 
  Dimitrios Pantazis     : SARC Basis sets                               
  Anastasios Papadopoulos: AUTO-CI, single reference methods and gradients 
  Taras Petrenko         : pre 6.0 DFT Hessian and TD-DFT gradient, (ASA, deprecated), ECA, 1-Electron XAS/XES, NRVS 
  Peter Pinski           : DLPNO-MP2, DLPNO-MP2 Gradient                 
  Christoph Reimann      : Effective Core Potentials                     
  Marius Retegan         : Local ZFS, SOC                                
  Christoph Riplinger    : Optimizer, TS searches, QM/MM, DLPNO-CCSD(T), (RO)-DLPNO pert. Triples 
  Michael Roemelt        : Original ROCIS implementation                 
  Masaaki Saitow         : Open-shell DLPNO-CCSD energy and density      
  Barbara Sandhoefer     : DKH picture change effects                    
  Kantharuban Sivalingam : CASSCF convergence/infrastructure, NEVPT2 and variants, FIC-MRCI 
  Bernardo de Souza      : ESD, SOC TD-DFT                               
  Georgi L. Stoychev     : AutoAux, RI-MP2 NMR, DLPNO-MP2 response, X2C  
  Van Anh Tran           : RI-MP2 g-tensors                              
  Willem Van den Heuvel  : Paramagnetic NMR                              
  Zikuan Wang            : NOTCH, Electric field optimization            
  Frank Wennmohs         : Technical directorship and infrastructure     
  Hang Xu                : AUTO-CI-Response properties                   
                                                                         
[FACCTs GmbH]                                                            
  Markus Bursch, Miquel Garcia-Rates, Christoph Riplinger, Bernardo de Souza, Georgi L. Stoychev 
                                                                 
  APM, Basis sets (HGBS, AHGBS, def-TZVP (Ac-Lr), def2-XVPD (La-Lu)), CI-OPT, improved COSX, DLPNO-Multilevel,           
  DOCKER, DRACO, updates on ESD, GOAT, IRC, LR-CPCM, MBIS, meta-GGA TD-DFT gradient, ML-optimized integration grids, 
  MM, NACMEs, nearIR, NEB, NEB-TS, NL-DFT gradient (VV10), 2- and 3-layer-ONIOM, interface openCOSMO-RS, QMMM,   
  Crystal-QMMM, SF, symmetry and pop. for TD-DFT, r2SCAN hybrids, SOLVATOR                                   
                                                                         
[Other institutions]                                                     
  V. Asgeirsson          : NEB                                           
  Christoph Bannwarth    : sTDA-DFT, sTD-DFT, PBEh-3c, B97-3c, D3        
  Sebastian Ehlert       : rSCAN, r2SCAN, r2SCAN-3c, D4, dhf basis sets  
  Marvin Friede          : D4 for Fr, Ra, Ac-Lr                          
  Lars Goerigk           : TD-DFT with DH, B97 family of functionals     
  Stefan Grimme          : VdW corrections, initial TS optimization, DFT functionals, gCP, sTDA/sTD-DF 
  Waldemar Hujo          : DFT-NL                                        
  H. Jonsson             : NEB                                           
  Holger Kruse           : gCP                                           
  Marcel Mueller         : wB97X-3c, vDZP basis set                      
  Hagen Neugebauer       : wr2SCAN                                       
  Tobias Risthaus        : range-separated hybrid DFT                    
  Lukas Wittmann         : regularized MP2, r2SCAN double-hybrids, wr2SCAN        
                                                                         
We gratefully acknowledge several colleagues who have allowed us to      
interface, adapt or use parts of their codes:                            
  Ed Valeev, F. Pavosevic, A. Kumar             : LibInt (2-el integral package), F12 methods 
  Garnet Chan, S. Sharma, J. Yang, R. Olivares  : DMRG                   
  Ulf Ekstrom                                   : XCFun DFT Library      
  Mihaly Kallay                                 : mrcc  (arbitrary order and MRCC methods)
  Frank Weinhold                                : gennbo (NPA and NBO analysis)           
  Simon Mueller                                 : openCOSMO-RS                            
  Christopher J. Cramer and Donald G. Truhlar   : smd solvation model                     
  S Lehtola, MJT Oliveira, MAL Marques          : LibXC Library                           
  Liviu Ungur et al                             : ANISO software                          


 Your calculation uses the libint2 library for the computation of 2-el integrals
 For citations please refer to: http://libint.valeyev.net

 Your ORCA version has been built with support for libXC version: 6.2.2
 For citations please refer to: https://libxc.gitlab.io

 This ORCA versions uses:
   CBLAS   interface :  Fast vector & matrix operations
   LAPACKE interface :  Fast linear algebra routines
   SCALAPACK package :  Parallel linear algebra routines
   Shared memory     :  Shared parallel matrices
   BLAS/LAPACK       :  OpenBLAS 0.3.27  USE64BITINT DYNAMIC_ARCH NO_AFFINITY SkylakeX SINGLE_THREADED
        Core in use  :  SkylakeX
   Copyright (c) 2011-2014, The OpenBLAS Project


NOTE: MaxCore=8000 MB was set to SCF,MP2,MDCI,CIPSI,MRCI and CIS
      => If you want to overwrite this, your respective input block should be placed after the MaxCore statement
Your calculation utilizes the atom-pairwise dispersion correction
with the Becke-Johnson damping scheme (D3BJ)


Your calculation utilizes the SMD solvation module
Please cite in your paper:
A.V. Marenich, C.J. Cramer, D.G. Truhlar J. Phys. Chem. B, 113, (2009), 6378 

Warning: RI is on but no J-basis has been assigned. Assigning Def2/J (nothing to worry about!)
================================================================================

----- Orbital basis set information -----
Your calculation utilizes the basis: def2-TZVP
   F. Weigend and R. Ahlrichs, Phys. Chem. Chem. Phys. 7, 3297 (2005).

----- AuxJ basis set information -----
Your calculation utilizes the auxiliary basis: def2/J
   F. Weigend, Phys. Chem. Chem. Phys. 8, 1057 (2006).

================================================================================
                                        WARNINGS
                       Please study these warnings very carefully!
================================================================================


WARNING: your system is open-shell and RHF/RKS was chosen
  ===> : WILL SWITCH to UHF/UKS


================================================================================
                                       INPUT FILE
================================================================================
NAME = rf_mecn_opt_B3L_D_A.inp
|  1> !B3LYP def2-TZVP freq d3 TightSCF SlowConv defgrid2
|  2>  
|  3> %pal
|  4> nprocs 20
|  5> end
|  6>  
|  7> %scf
|  8> MaxIter 1500
|  9> end
| 10>  
| 11> %maxcore 8000
| 12>  
| 13> !CPCM
| 14> %cpcm smd true
| 15> SMDsolvent "ACETONITRILE"
| 16> end
| 17>  
| 18> * xyz -2 2
| 19> 6        4.989898000      0.212776000     -0.279300000
| 20> 8        5.465404000     -0.255868000     -1.326046000
| 21> 8        5.359603000      1.166111000      0.428361000
| 22> 6        3.677995000     -0.494573000      0.240850000
| 23> 6        2.378966000      0.309871000     -0.061942000
| 24> 6        0.996908000     -0.416423000      0.037366000
| 25> 6       -0.360875000      0.362783000      0.025894000
| 26> 6       -1.821221000     -0.243269000     -0.012516000
| 27> 6       -3.198645000      0.498754000     -0.013022000
| 28> 6       -4.569779000     -0.214722000     -0.044465000
| 29> 9        3.534380000     -1.742303000     -0.309015000
| 30> 9        3.740831000     -0.689004000      1.597847000
| 31> 9        2.350089000      1.375660000      0.789860000
| 32> 9        2.485610000      0.802423000     -1.331875000
| 33> 9        0.946150000     -1.292724000     -1.019841000
| 34> 9        1.016390000     -1.144521000      1.202272000
| 35> 9       -0.341547000      1.156880000      1.160848000
| 36> 9       -0.293688000      1.178160000     -1.100641000
| 37> 9       -1.879339000     -1.067734000      1.113884000
| 38> 9       -1.851129000     -1.027261000     -1.161021000
| 39> 9       -3.202673000      1.320008000     -1.120904000
| 40> 9       -3.229351000      1.279504000      1.121763000
| 41> 9       -4.715486000     -1.012585000      1.026044000
| 42> 9       -5.638979000      0.637646000     -0.039177000
| 43> 9       -4.688108000     -0.966034000     -1.151680000
| 44> *
| 45> 
| 46>                          ****END OF INPUT****
================================================================================

                       ****************************
                       * Single Point Calculation *
                       ****************************

---------------------------------
CARTESIAN COORDINATES (ANGSTROEM)
---------------------------------
  C      4.989898    0.212776   -0.279300
  O      5.465404   -0.255868   -1.326046
  O      5.359603    1.166111    0.428361
  C      3.677995   -0.494573    0.240850
  C      2.378966    0.309871   -0.061942
  C      0.996908   -0.416423    0.037366
  C     -0.360875    0.362783    0.025894
  C     -1.821221   -0.243269   -0.012516
  C     -3.198645    0.498754   -0.013022
  C     -4.569779   -0.214722   -0.044465
  F      3.534380   -1.742303   -0.309015
  F      3.740831   -0.689004    1.597847
  F      2.350089    1.375660    0.789860
  F      2.485610    0.802423   -1.331875
  F      0.946150   -1.292724   -1.019841
  F      1.016390   -1.144521    1.202272
  F     -0.341547    1.156880    1.160848
  F     -0.293688    1.178160   -1.100641
  F     -1.879339   -1.067734    1.113884
  F     -1.851129   -1.027261   -1.161021
  F     -3.202673    1.320008   -1.120904
  F     -3.229351    1.279504    1.121763
  F     -4.715486   -1.012585    1.026044
  F     -5.638979    0.637646   -0.039177
  F     -4.688108   -0.966034   -1.151680

----------------------------
CARTESIAN COORDINATES (A.U.)
----------------------------
  NO LB      ZA    FRAG     MASS         X           Y           Z
   0 C     6.0000    0    12.011    9.429541    0.402088   -0.527801
   1 O     8.0000    0    15.999   10.328117   -0.483520   -2.505864
   2 O     8.0000    0    15.999   10.128182    2.203630    0.809485
   3 C     6.0000    0    12.011    6.950403   -0.934608    0.455141
   4 C     6.0000    0    12.011    4.495594    0.585571   -0.117053
   5 C     6.0000    0    12.011    1.883883   -0.786925    0.070612
   6 C     6.0000    0    12.011   -0.681955    0.685561    0.048933
   7 C     6.0000    0    12.011   -3.441609   -0.459712   -0.023652
   8 C     6.0000    0    12.011   -6.044563    0.942508   -0.024608
   9 C     6.0000    0    12.011   -8.635631   -0.405766   -0.084027
  10 F     9.0000    0    18.998    6.679010   -3.292476   -0.583954
  11 F     9.0000    0    18.998    7.069146   -1.302029    3.019493
  12 F     9.0000    0    18.998    4.441025    2.599621    1.492619
  13 F     9.0000    0    18.998    4.697122    1.516360   -2.516879
  14 F     9.0000    0    18.998    1.787964   -2.442894   -1.927220
  15 F     9.0000    0    18.998    1.920699   -2.162831    2.271965
  16 F     9.0000    0    18.998   -0.645430    2.186186    2.193685
  17 F     9.0000    0    18.998   -0.554990    2.226400   -2.079910
  18 F     9.0000    0    18.998   -3.551436   -2.017725    2.104936
  19 F     9.0000    0    18.998   -3.498127   -1.941242   -2.194012
  20 F     9.0000    0    18.998   -6.052175    2.494454   -2.118202
  21 F     9.0000    0    18.998   -6.102589    2.417912    2.119825
  22 F     9.0000    0    18.998   -8.910977   -1.913508    1.938942
  23 F     9.0000    0    18.998  -10.656126    1.204976   -0.074034
  24 F     9.0000    0    18.998   -8.859240   -1.825540   -2.176360

--------------------------------
INTERNAL COORDINATES (ANGSTROEM)
--------------------------------
 C      0   0   0     0.000000000000     0.00000000     0.00000000
 O      1   0   0     1.241535478063     0.00000000     0.00000000
 O      1   2   0     1.243508544470   130.94376050     0.00000000
 C      1   2   3     1.578603215412   115.27454157   178.74717293
 C      4   1   2     1.557655124616   113.42857821   257.42114669
 C      5   4   1     1.564432602787   118.98909410   163.72034516
 C      6   5   4     1.565524919096   122.32074614   167.85779368
 C      7   6   5     1.581576679937   127.60923682   173.99228240
 C      8   7   6     1.564575106647   129.13659182   179.43330655
 C      9   8   7     1.545977073174   124.19047659   180.38283361
 F      4   1   2     1.371060516298   111.26507312    19.08630627
 F      4   1   2     1.372294660292   110.56440765   136.36038101
 F      5   4   1     1.364663592558   107.43664498   286.30988448
 F      5   4   1     1.366276048216   107.56392890    41.74808343
 F      6   5   4     1.374105693902   106.25184075   289.81152773
 F      6   5   4     1.373867619083   106.69837967    45.27325330
 F      7   6   5     1.385310145458   105.49813086   296.96867418
 F      7   6   5     1.392276858718   104.80717933    52.04239117
 F      8   7   6     1.397103145136   104.17963307    57.46732912
 F      8   7   6     1.390899593627   104.82685436   302.54836209
 F      9   8   7     1.379085524260   106.57432390    58.71654885
 F      9   8   7     1.377770088644   106.74479332   302.43934447
 F     10   9   8     1.343058232430   110.74268894    60.10798188
 F     10   9   8     1.367387220347   113.93727947   180.00953453
 F     10   9   8     1.343278277130   110.67195161   299.90262197

---------------------------
INTERNAL COORDINATES (A.U.)
---------------------------
 C      0   0   0     0.000000000000     0.00000000     0.00000000
 O      1   0   0     2.346162039085     0.00000000     0.00000000
 O      1   2   0     2.349890594240   130.94376050     0.00000000
 C      1   2   3     2.983127751257   115.27454157   178.74717293
 C      4   1   2     2.943541596622   113.42857821   257.42114669
 C      5   4   1     2.956349174246   118.98909410   163.72034516
 C      6   5   4     2.958413352920   122.32074614   167.85779368
 C      7   6   5     2.988746784877   127.60923682   173.99228240
 C      8   7   6     2.956618467514   129.13659182   179.43330655
 C      9   8   7     2.921473277621   124.19047659   180.38283361
 F      4   1   2     2.590928888835   111.26507312    19.08630627
 F      4   1   2     2.593261082994   110.56440765   136.36038101
 F      5   4   1     2.578840454868   107.43664498   286.30988448
 F      5   4   1     2.581887554465   107.56392890    41.74808343
 F      6   5   4     2.596683440537   106.25184075   289.81152773
 F      6   5   4     2.596233544329   106.69837967    45.27325330
 F      7   6   5     2.617856785458   105.49813086   296.96867418
 F      7   6   5     2.631021965574   104.80717933    52.04239117
 F      8   7   6     2.640142325147   104.17963307    57.46732912
 F      8   7   6     2.628419311738   104.82685436   302.54836209
 F      9   8   7     2.606093956107   106.57432390    58.71654885
 F      9   8   7     2.603608143045   106.74479332   302.43934447
 F     10   9   8     2.538012241202   110.74268894    60.10798188
 F     10   9   8     2.583987365479   113.93727947   180.00953453
 F     10   9   8     2.538428065422   110.67195161   299.90262197

---------------------
BASIS SET INFORMATION
---------------------
There are 3 groups of distinct atoms

 Group   1 Type C   : 11s6p2d1f contracted to 5s3p2d1f pattern {62111/411/11/1}
 Group   2 Type O   : 11s6p2d1f contracted to 5s3p2d1f pattern {62111/411/11/1}
 Group   3 Type F   : 11s6p2d1f contracted to 5s3p2d1f pattern {62111/411/11/1}

Atom   0C    basis set group =>   1
Atom   1O    basis set group =>   2
Atom   2O    basis set group =>   2
Atom   3C    basis set group =>   1
Atom   4C    basis set group =>   1
Atom   5C    basis set group =>   1
Atom   6C    basis set group =>   1
Atom   7C    basis set group =>   1
Atom   8C    basis set group =>   1
Atom   9C    basis set group =>   1
Atom  10F    basis set group =>   3
Atom  11F    basis set group =>   3
Atom  12F    basis set group =>   3
Atom  13F    basis set group =>   3
Atom  14F    basis set group =>   3
Atom  15F    basis set group =>   3
Atom  16F    basis set group =>   3
Atom  17F    basis set group =>   3
Atom  18F    basis set group =>   3
Atom  19F    basis set group =>   3
Atom  20F    basis set group =>   3
Atom  21F    basis set group =>   3
Atom  22F    basis set group =>   3
Atom  23F    basis set group =>   3
Atom  24F    basis set group =>   3
---------------------------------
AUXILIARY/J BASIS SET INFORMATION
---------------------------------
There are 3 groups of distinct atoms

 Group   1 Type C   : 12s5p4d2f1g contracted to 6s4p3d1f1g pattern {711111/2111/211/2/1}
 Group   2 Type O   : 12s5p4d2f1g contracted to 6s4p3d1f1g pattern {711111/2111/211/2/1}
 Group   3 Type F   : 12s5p4d2f1g contracted to 6s4p3d1f1g pattern {711111/2111/211/2/1}

Atom   0C    basis set group =>   1
Atom   1O    basis set group =>   2
Atom   2O    basis set group =>   2
Atom   3C    basis set group =>   1
Atom   4C    basis set group =>   1
Atom   5C    basis set group =>   1
Atom   6C    basis set group =>   1
Atom   7C    basis set group =>   1
Atom   8C    basis set group =>   1
Atom   9C    basis set group =>   1
Atom  10F    basis set group =>   3
Atom  11F    basis set group =>   3
Atom  12F    basis set group =>   3
Atom  13F    basis set group =>   3
Atom  14F    basis set group =>   3
Atom  15F    basis set group =>   3
Atom  16F    basis set group =>   3
Atom  17F    basis set group =>   3
Atom  18F    basis set group =>   3
Atom  19F    basis set group =>   3
Atom  20F    basis set group =>   3
Atom  21F    basis set group =>   3
Atom  22F    basis set group =>   3
Atom  23F    basis set group =>   3
Atom  24F    basis set group =>   3


           ************************************************************
           *        Program running with 20 parallel MPI-processes    *
           *              working on a common directory               *
           ************************************************************
------------------------------------------------------------------------------
                             ORCA STARTUP CALCULATIONS
                           -- RI-GTO INTEGRALS CHOSEN --
------------------------------------------------------------------------------
------------------------------------------------------------------------------
                   ___                                                        
                  /   \      - P O W E R E D   B Y -                         
                 /     \                                                     
                 |  |  |   _    _      __       _____    __    __             
                 |  |  |  | |  | |    /  \     |  _  \  |  |  /  |          
                  \  \/   | |  | |   /    \    | | | |  |  | /  /          
                 / \  \   | |__| |  /  /\  \   | |_| |  |  |/  /          
                |  |  |   |  __  | /  /__\  \  |    /   |      \           
                |  |  |   | |  | | |   __   |  |    \   |  |\   \          
                \     /   | |  | | |  |  |  |  | |\  \  |  | \   \       
                 \___/    |_|  |_| |__|  |__|  |_| \__\ |__|  \__/        
                                                                              
                      - O R C A' S   B I G   F R I E N D -                    
                                      &                                       
                       - I N T E G R A L  F E E D E R -                       
                                                                              
 v1 FN, 2020, v2 2021, v3 2022-2024                                           
------------------------------------------------------------------------------


----------------------
SHARK INTEGRAL PACKAGE
----------------------

Number of atoms                             ...     25
Number of basis functions                   ...    775
Number of shells                            ...    275
Maximum angular momentum                    ...      3
Integral batch strategy                     ... SHARK/LIBINT Hybrid
RI-J (if used) integral strategy            ... SPLIT-RIJ (Revised 2003 algorithm where possible)
Printlevel                                  ...      1
Contraction scheme used                     ... SEGMENTED contraction
Prescreening option                         ... SCHWARTZ
   Thresh                                   ... 2.500e-11
   Tcut                                     ... 2.500e-12
   Tpresel                                  ... 2.500e-12 
Coulomb Range Separation                    ... NOT USED
Exchange Range Separation                   ... NOT USED
Multipole approximations                    ... NOT USED
Finite Nucleus Model                        ... NOT USED
CABS basis                                  ... NOT available
Auxiliary Coulomb fitting basis             ... AVAILABLE
   # of basis functions in Aux-J            ...   1225
   # of shells in Aux-J                     ...    375
   Maximum angular momentum in Aux-J        ...      4
Auxiliary J/K fitting basis                 ... NOT available
Auxiliary Correlation fitting basis         ... NOT available
Auxiliary 'external' fitting basis          ... NOT available

Checking pre-screening integrals            ... done (  0.0 sec) Dimension = 275
Check shell pair data                       ... done (  0.0 sec)
Shell pair information
Shell pair cut-off parameter TPreSel        ...   2.5e-12
Total number of shell pairs                 ...     37950
Shell pairs after pre-screening             ...     22813
Total number of primitive shell pairs       ...    125800
Primitive shell pairs kept                  ...     48494
          la=0 lb=0:   4235 shell pairs
          la=1 lb=0:   6240 shell pairs
          la=1 lb=1:   2170 shell pairs
          la=2 lb=0:   3387 shell pairs
          la=2 lb=1:   2499 shell pairs
          la=2 lb=2:    707 shell pairs
          la=3 lb=0:   1546 shell pairs
          la=3 lb=1:   1216 shell pairs
          la=3 lb=2:    656 shell pairs
          la=3 lb=3:    157 shell pairs

Calculating one electron integrals          ... done (  0.0 sec)
Calculating RI/J V-Matrix + Cholesky decomp.... done (  0.1 sec)
Calculating Nuclear repulsion               ... done (  0.0 sec) ENN=   2805.654606753146 Eh

Diagonalization of the overlap matrix:
Smallest eigenvalue                        ... 9.630e-05
Time for diagonalization                   ...    0.135 sec
Threshold for overlap eigenvalues          ... 1.000e-07
Number of eigenvalues below threshold      ... 0
Time for construction of square roots      ...    0.066 sec
Total time needed                          ...    0.209 sec

-------------------
DFT GRID GENERATION
-------------------

General Integration Accuracy     IntAcc      ... 4.388
Radial Grid Type                 RadialGrid  ... OptM3 with GC (2021)
Angular Grid (max. ang.)         AngularGrid ... 4 (Lebedev-302)
Angular grid pruning method      GridPruning ... 4 (adaptive)
Weight generation scheme         WeightScheme... mBecke (2022)
Basis function cutoff            BFCut       ... 1.0000e-11
Integration weight cutoff        WCut        ... 1.0000e-14
Partially contracted basis set               ... off
Rotationally invariant grid construction     ... off
Angular grids for H and He will be reduced by one unit

Total number of grid points                  ...   151610
Total number of batches                      ...     2384
Average number of points per batch           ...       63
Average number of grid points per atom       ...     6064

--------------------
COSX GRID GENERATION
--------------------

GRIDX 1
-------
General Integration Accuracy     IntAcc      ... 3.816
Radial Grid Type                 RadialGrid  ... OptM3 with GC (2021)
Angular Grid (max. ang.)         AngularGrid ... 1 (Lebedev-50)
Angular grid pruning method      GridPruning ... 4 (adaptive)
Weight generation scheme         WeightScheme... mBecke (2022)
Basis function cutoff            BFCut       ... 1.0000e-11
Integration weight cutoff        WCut        ... 1.0000e-14
Partially contracted basis set               ... on
Rotationally invariant grid construction     ... off
Angular grids for H and He will be reduced by one unit

Total number of grid points                  ...    19012
Total number of batches                      ...      159
Average number of points per batch           ...      119
Average number of grid points per atom       ...      760
UseSFitting                                  ... on

GRIDX 2
-------
General Integration Accuracy     IntAcc      ... 4.020
Radial Grid Type                 RadialGrid  ... OptM3 with GC (2021)
Angular Grid (max. ang.)         AngularGrid ... 2 (Lebedev-110)
Angular grid pruning method      GridPruning ... 4 (adaptive)
Weight generation scheme         WeightScheme... mBecke (2022)
Basis function cutoff            BFCut       ... 1.0000e-11
Integration weight cutoff        WCut        ... 1.0000e-14
Partially contracted basis set               ... on
Rotationally invariant grid construction     ... off
Angular grids for H and He will be reduced by one unit

Total number of grid points                  ...    45129
Total number of batches                      ...      367
Average number of points per batch           ...      122
Average number of grid points per atom       ...     1805
UseSFitting                                  ... on

GRIDX 3
-------
General Integration Accuracy     IntAcc      ... 4.338
Radial Grid Type                 RadialGrid  ... OptM3 with GC (2021)
Angular Grid (max. ang.)         AngularGrid ... 3 (Lebedev-194)
Angular grid pruning method      GridPruning ... 4 (adaptive)
Weight generation scheme         WeightScheme... mBecke (2022)
Basis function cutoff            BFCut       ... 1.0000e-11
Integration weight cutoff        WCut        ... 1.0000e-14
Partially contracted basis set               ... on
Rotationally invariant grid construction     ... off
Angular grids for H and He will be reduced by one unit

Total number of grid points                  ...   100137
Total number of batches                      ...      794
Average number of points per batch           ...      126
Average number of grid points per atom       ...     4005
UseSFitting                                  ... on
Initializing property integral containers    ... done (  0.0 sec)

SHARK setup successfully completed in   3.6 seconds

Maximum memory used throughout the entire STARTUP-calculation: 58.7 MB


           ************************************************************
           *        Program running with 20 parallel MPI-processes    *
           *              working on a common directory               *
           ************************************************************
-------------------------------------------------------------------------------
                                 ORCA GUESS
                   Start orbitals & Density for SCF / CASSCF
-------------------------------------------------------------------------------

------------
SCF SETTINGS
------------
Hamiltonian:
 Density Functional     Method          .... DFT(GTOs)
 Exchange Functional    Exchange        .... B88
   X-Alpha parameter    XAlpha          ....  0.666667
   Becke's b parameter  XBeta           ....  0.004200
 Correlation Functional Correlation     .... LYP
 LDA part of GGA corr.  LDAOpt          .... VWN-5
 Gradients option       PostSCFGGA      .... off
 Hybrid DFT is turned on
   Fraction HF Exchange ScalHFX         ....  0.200000
   Scaling of DF-GGA-X  ScalDFX         ....  0.720000
   Scaling of DF-GGA-C  ScalDFC         ....  0.810000
   Scaling of DF-LDA-C  ScalLDAC        ....  1.000000
   Perturbative correction              ....  0.000000
   NL short-range parameter             ....  4.800000
 RI-approximation to the Coulomb term is turned on
   Number of AuxJ basis functions       .... 1225
   RIJ-COSX (HFX calculated with COS-X)).... on


General Settings:
 Integral files         IntName         .... rf_mecn_opt_B3L_D_A
 Hartree-Fock type      HFTyp           .... UHF
 Total Charge           Charge          ....   -2
 Multiplicity           Mult            ....    2
 Number of Electrons    NEL             ....  201
 Basis Dimension        Dim             ....  775
 Nuclear Repulsion      ENuc            ....   2805.6546067531 Eh

Convergence Acceleration:
 AO-DIIS                CNVDIIS         .... on
   Start iteration      DIISMaxIt       ....     0
   Startup error        DIISStart       ....  0.200000
   # of expansion vecs  DIISMaxEq       ....     5
   Bias factor          DIISBfac        ....   1.050
   Max. coefficient     DIISMaxC        ....  10.000
 MO-DIIS                CNVKDIIS        .... off
 Trust-Rad. Augm. Hess. CNVTRAH         .... auto
   Auto Start mean grad. ratio tolernc. ....  1.125000
   Auto Start start iteration           ....    50
   Auto Start num. interpolation iter.  ....    10
   Max. Number of Micro iterations      ....    24
   Max. Number of Macro iterations      .... Maxiter - #DIIS iter
   Number of Davidson start vectors     ....     2
   Converg. threshold    (grad. norm)   ....   1.000e-05
   Grad. Scal. Fac. for Micro threshold ....   0.100
   Minimum threshold for Micro iter.    ....   1.000e-02
   NR start threshold (gradient norm)   ....   1.000e-04
   Initial trust radius                 ....   0.400
   Minimum AH scaling param. (alpha)    ....   1.000
   Maximum AH scaling param. (alpha)    .... 1000.000
   Quad. conv. algorithm                .... NR
   White noise on init. David. guess    .... on
   Maximum white noise                  ....   0.010
   Pseudo random numbers                .... off
   Inactive MOs                         .... canonical
   Orbital update algorithm             .... Taylor
   Preconditioner                       .... Diag
   Full preconditioner red. dimension   ....   250
 SOSCF                  CNVSOSCF        .... on
   Start iteration      SOSCFMaxIt      ....   150
   Startup grad/error   SOSCFStart      ....  0.001000
   Hessian update       SOSCFHessUp     .... L-BFGS
 Level Shifting         CNVShift        .... on
   Level shift para.    LevelShift      ....    0.2500
   Turn off err/grad.   ShiftErr        ....    0.0000
 Zerner damping         CNVZerner       .... off
 Static damping         CNVDamp         .... on
   Fraction old density DampFac         ....    0.8500
   Max. Damping (<1)    DampMax         ....    0.9800
   Min. Damping (>=0)   DampMin         ....    0.0000
   Turn off err/grad.   DampErr         ....    0.0300

SCF Procedure:
 Maximum # iterations   MaxIter         ....  1500
 SCF integral mode      SCFMode         .... Direct
   Integral package                     .... SHARK and LIBINT hybrid scheme
 Reset frequency        DirectResetFreq ....    20
 Integral Threshold     Thresh          ....  2.500e-11 Eh
 Primitive CutOff       TCut            ....  2.500e-12 Eh

Convergence Tolerance:
 Convergence Check Mode ConvCheckMode   .... Total+1el-Energy
 Convergence forced     ConvForced      .... 0
 Energy Change          TolE            ....  1.000e-08 Eh
 1-El. energy change                    ....  1.000e-05 Eh
 Orbital Gradient       TolG            ....  1.000e-05
 Orbital Rotation angle TolX            ....  1.000e-05
 DIIS Error             TolErr          ....  5.000e-07

------------------------------
INITIAL GUESS: MODEL POTENTIAL
------------------------------
Loading Hartree-Fock densities                     ... done
Calculating cut-offs                               ... done
Initializing the effective Hamiltonian             ... done
Setting up the integral package (SHARK)            ... done
Starting the Coulomb interaction                   ... done (   0.2 sec)
Making the grid                                    ... done (   0.4 sec)
Mapping shells                                     ... done
Starting the XC term evaluation                    ... done (   0.1 sec)
  promolecular density results
     # of electrons  =    199.001429863
     EX              =   -208.222242124
     EC              =     -7.486007154
     EX+EC           =   -215.708249278
Transforming the Hamiltonian                       ... done (   0.1 sec)
Diagonalizing the Hamiltonian                      ... done (   0.1 sec)
Back transforming the eigenvectors                 ... done (   0.0 sec)
Now organizing SCF variables                       ... done
                      ------------------
                      INITIAL GUESS DONE (   1.1 sec)
                      ------------------
             **** ENERGY FILE WAS UPDATED (rf_mecn_opt_B3L_D_A.en.tmp) ****
Finished Guess after   1.9 sec
Maximum memory used throughout the entire GUESS-calculation: 47.8 MB


           ************************************************************
           *        Program running with 20 parallel MPI-processes    *
           *              working on a common directory               *
           ************************************************************

-------------------------------------------------------------------------------------------
                                      ORCA LEAN-SCF
                              memory conserving SCF solver
-------------------------------------------------------------------------------------------

--------------------
CPCM SOLVATION MODEL
--------------------
CPCM parameters:
  Epsilon                                         ...      35.6880
  Refrac                                          ...       1.3442
  Rsolv                                           ...       1.3000
  Surface type                                    ... GAUSSIAN VDW
  Discretization scheme                           ... Constant charge density
    Threshold for H atoms                         ...       5.0000 (charges/Ang^2)
    Threshold for non-H atoms                     ...       5.0000 (charges/Ang^2)
  Epsilon function type                           ...         CPCM
Solvent:                                          ... ACETONITRILE
SMD-CDS solvent descriptors:
  Soln                                            ...       1.3442
  Soln25                                          ...       1.3416
  Sola                                            ...       0.0700
  Solb                                            ...       0.3200
  Solg                                            ...      41.2500
  Solc                                            ...       0.0000
  Solh                                            ...       0.0000
Radii:
  Scheme                                          ... Element-dependent radii
  Radius for C  used is    3.4960 Bohr (=   1.8500 Ang.)
  Radius for O  used is    4.0969 Bohr (=   2.1680 Ang.)
  Radius for F  used is    3.2692 Bohr (=   1.7300 Ang.)
Calculating surface                               ...        done! (  0.0s)
Cavity surface points                             ...         2204
Cavity Volume                                     ...    2206.1216
Cavity Surface-area                               ...    1153.0297
Calculating surface distance matrix               ...        done! (  0.1s)
Performing Cholesky decomposition & store         ...        done! (  0.1s)
Overall time for CPCM initialization              ...                 0.2s

----------------------------------------D-I-I-S--------------------------------------------
Iteration    Energy (Eh)           Delta-E    RMSDP     MaxDP     DIISErr   Damp  Time(sec)
-------------------------------------------------------------------------------------------
               ***  Starting incremental Fock matrix formation  ***
    1    -1952.3852811525271136     0.00e+00  7.67e-04  1.10e-01  1.96e-01  0.850   7.8
Warning: op=0 Small HOMO/LUMO gap (   0.024) - skipping pre-diagonalization
         Will do a full diagonalization
    2    -1952.6527403069708271    -2.67e-01  9.07e-04  1.58e-01  1.23e-01  0.850   5.4
                               ***Turning on AO-DIIS***
    3    -1952.7705424638093064    -1.18e-01  7.64e-04  1.29e-01  6.71e-02  0.850   4.6
    4    -1952.8288507234851750    -5.83e-02  4.54e-04  9.06e-02  4.48e-02  0.850   4.6
    5    -1952.8740461516440519    -4.52e-02  3.12e-04  5.05e-02  3.70e-02  0.850   4.5
    6    -1952.9157340658871362    -4.17e-02  2.53e-04  3.88e-02  3.43e-02  0.850   4.5
    7    -1952.9533273598804044    -3.76e-02  2.13e-04  3.90e-02  3.18e-02  0.850   4.3
    8    -1952.9870639015239249    -3.37e-02  1.82e-04  3.58e-02  2.80e-02  0.850   4.4
    9    -1953.0171875465698577    -3.01e-02  1.09e-03  2.09e-01  2.20e-02  0.000   4.4
   10    -1953.1938349450315400    -1.77e-01  1.34e-04  2.23e-02  9.88e-03  0.000   4.7
   11    -1953.1957886969689753    -1.95e-03  1.33e-04  3.08e-02  2.94e-03  0.000   4.4
   12    -1953.1965276507667113    -7.39e-04  9.65e-05  2.24e-02  2.13e-03  0.000   4.2
   13    -1953.1969071986563904    -3.80e-04  6.64e-05  1.51e-02  1.02e-03  0.000   4.2
                              *** Initializing SOSCF ***
---------------------------------------S-O-S-C-F--------------------------------------
Iteration    Energy (Eh)           Delta-E    RMSDP     MaxDP     MaxGrad    Time(sec)
--------------------------------------------------------------------------------------
   14    -1953.1970961754354903    -1.89e-04  5.12e-05  1.22e-02  8.13e-04     4.9
               *** Restarting incremental Fock matrix formation ***
   15    -1953.1972209133205070    -1.25e-04  1.16e-04  2.61e-02  2.72e-03     7.6
   16    -1953.1973112556120213    -9.03e-05  6.10e-05  1.37e-02  4.22e-04     6.2
   17    -1953.1973057293912461     5.53e-06  2.39e-05  5.46e-03  9.35e-04     6.0
   18    -1953.1973259493511250    -2.02e-05  1.15e-05  2.24e-03  2.55e-04     5.6
   19    -1953.1973247453165641     1.20e-06  6.52e-06  1.27e-03  2.17e-04     5.3
   20    -1953.1973276881140009    -2.94e-06  2.37e-06  5.04e-04  2.27e-05     5.1
   21    -1953.1973276201256340     6.80e-08  1.13e-06  1.92e-04  2.70e-05     4.5
   22    -1953.1973278142390882    -1.94e-07  3.98e-07  8.55e-05  3.04e-06     4.3
   23    -1953.1973278209638920    -6.72e-09  1.19e-07  2.91e-05  2.95e-06     3.7
                 **** Energy Check signals convergence ****

               *****************************************************
               *                     SUCCESS                       *
               *           SCF CONVERGED AFTER  23 CYCLES          *
               *****************************************************

Recomputing exchange energy using gridx3       ... done (    9.699 sec)
Old exchange energy                            :    -41.840107944 Eh
New exchange energy                            :    -41.840179169 Eh
Exchange energy change after final integration :     -0.000071225 Eh
Total energy after final integration           :  -1953.197399046 Eh

SMD CDS free energy correction energy :                 3.40489     Kcal/mol
Total Energy after SMD CDS correction =             -1953.191973003 Eh
             **** ENERGY FILE WAS UPDATED (rf_mecn_opt_B3L_D_A.en.tmp) ****

----------------
TOTAL SCF ENERGY
----------------

Total Energy       :      -1953.19197300255223 Eh          -53149.05563 eV

Components:
Nuclear Repulsion  :       2805.65460675314580 Eh           76345.74319 eV
Electronic Energy  :      -4758.62011662523400 Eh         -129488.63645 eV
One Electron Energy:      -8356.70641708836047 Eh         -227397.54228 eV
Two Electron Energy:       3598.08630046312692 Eh           97908.90583 eV
CPCM Dielectric    :         -0.23181794887687 Eh              -6.30809 eV
SMD CDS (Gcds)     :          0.00542604316883 Eh               0.14765 eV

Virial components:
Potential Energy   :      -3899.82237940591858 Eh         -106119.56196 eV
Kinetic Energy     :       1946.63040640336612 Eh           52970.50633 eV
Virial Ratio       :          2.00337073055964

DFT components:
N(Alpha)           :      101.000010348077 electrons
N(Beta)            :       99.999999601042 electrons
N(Total)           :      201.000009949119 electrons
E(X)               :     -166.800354977711 Eh       
E(C)               :       -8.824102433245 Eh       
E(XC)              :     -175.624457410955 Eh       

CPCM Solvation Model Properties:
Surface-charge          :          1.98805314962295
Corrected charge        :          2.00000000000000
Outlying charge corr.   :          0.00000767450311 Eh               0.00021 eV
Free-energy (cav+disp)  :          0.00542604316883 Eh               0.14765 eV

---------------
SCF CONVERGENCE
---------------

  Last Energy change         ...    6.7248e-09  Tolerance :   1.0000e-08
  Last MAX-Density change    ...    2.9141e-05  Tolerance :   1.0000e-07
  Last RMS-Density change    ...    1.1917e-07  Tolerance :   5.0000e-09
  Last DIIS Error            ...    8.1260e-04  Tolerance :   5.0000e-07
  Last Orbital Gradient      ...    2.9490e-06  Tolerance :   1.0000e-05
  Last Orbital Rotation      ...    9.7409e-06  Tolerance :   1.0000e-05


----------------------
UHF SPIN CONTAMINATION
----------------------

Warning: in a DFT calculation there is little theoretical justification to 
         calculate <S**2> as in Hartree-Fock theory. We will do it anyways
         but you should keep in mind that the values have only limited relevance

Expectation value of <S**2>     :     0.753079
Ideal value S*(S+1) for S=0.5   :     0.750000
Deviation                       :     0.003079

----------------
ORBITAL ENERGIES
----------------
                 SPIN UP ORBITALS
  NO   OCC          E(Eh)            E(eV) 
   0   1.0000     -24.718265      -672.6182 
   1   1.0000     -24.718235      -672.6174 
   2   1.0000     -24.709605      -672.3825 
   3   1.0000     -24.699135      -672.0976 
   4   1.0000     -24.698164      -672.0712 
   5   1.0000     -24.697654      -672.0573 
   6   1.0000     -24.696651      -672.0300 
   7   1.0000     -24.694893      -671.9822 
   8   1.0000     -24.692708      -671.9227 
   9   1.0000     -24.683756      -671.6792 
  10   1.0000     -24.683620      -671.6755 
  11   1.0000     -24.683505      -671.6723 
  12   1.0000     -24.682718      -671.6509 
  13   1.0000     -24.682518      -671.6455 
  14   1.0000     -24.681846      -671.6272 
  15   1.0000     -19.050933      -518.4023 
  16   1.0000     -19.049918      -518.3746 
  17   1.0000     -10.424034      -283.6524 
  18   1.0000     -10.351223      -281.6711 
  19   1.0000     -10.350932      -281.6632 
  20   1.0000     -10.346747      -281.5493 
  21   1.0000     -10.334512      -281.2164 
  22   1.0000     -10.334348      -281.2119 
  23   1.0000     -10.326690      -281.0035 
  24   1.0000     -10.243414      -278.7375 
  25   1.0000      -1.317344       -35.8467 
  26   1.0000      -1.274546       -34.6822 
  27   1.0000      -1.261858       -34.3369 
  28   1.0000      -1.254788       -34.1445 
  29   1.0000      -1.245284       -33.8859 
  30   1.0000      -1.241609       -33.7859 
  31   1.0000      -1.234493       -33.5923 
  32   1.0000      -1.231132       -33.5008 
  33   1.0000      -1.221946       -33.2508 
  34   1.0000      -1.212333       -32.9892 
  35   1.0000      -1.207073       -32.8461 
  36   1.0000      -1.201110       -32.6839 
  37   1.0000      -1.192084       -32.4383 
  38   1.0000      -1.188330       -32.3361 
  39   1.0000      -1.184664       -32.2363 
  40   1.0000      -1.013463       -27.5777 
  41   1.0000      -0.929957       -25.3054 
  42   1.0000      -0.789675       -21.4882 
  43   1.0000      -0.784225       -21.3398 
  44   1.0000      -0.754680       -20.5359 
  45   1.0000      -0.723500       -19.6874 
  46   1.0000      -0.685962       -18.6660 
  47   1.0000      -0.655215       -17.8293 
  48   1.0000      -0.632687       -17.2163 
  49   1.0000      -0.603664       -16.4265 
  50   1.0000      -0.601726       -16.3738 
  51   1.0000      -0.599737       -16.3197 
  52   1.0000      -0.587842       -15.9960 
  53   1.0000      -0.583054       -15.8657 
  54   1.0000      -0.579816       -15.7776 
  55   1.0000      -0.566605       -15.4181 
  56   1.0000      -0.564040       -15.3483 
  57   1.0000      -0.555952       -15.1282 
  58   1.0000      -0.554195       -15.0804 
  59   1.0000      -0.546332       -14.8665 
  60   1.0000      -0.540003       -14.6942 
  61   1.0000      -0.536319       -14.5940 
  62   1.0000      -0.530551       -14.4370 
  63   1.0000      -0.521706       -14.1963 
  64   1.0000      -0.476624       -12.9696 
  65   1.0000      -0.476464       -12.9652 
  66   1.0000      -0.470243       -12.7959 
  67   1.0000      -0.460926       -12.5424 
  68   1.0000      -0.458747       -12.4831 
  69   1.0000      -0.455054       -12.3827 
  70   1.0000      -0.450938       -12.2707 
  71   1.0000      -0.448958       -12.2168 
  72   1.0000      -0.445941       -12.1347 
  73   1.0000      -0.444960       -12.1080 
  74   1.0000      -0.441561       -12.0155 
  75   1.0000      -0.438880       -11.9425 
  76   1.0000      -0.436337       -11.8733 
  77   1.0000      -0.430128       -11.7044 
  78   1.0000      -0.429132       -11.6773 
  79   1.0000      -0.423199       -11.5158 
  80   1.0000      -0.417816       -11.3693 
  81   1.0000      -0.417405       -11.3582 
  82   1.0000      -0.416686       -11.3386 
  83   1.0000      -0.408863       -11.1257 
  84   1.0000      -0.407096       -11.0776 
  85   1.0000      -0.405602       -11.0370 
  86   1.0000      -0.402112       -10.9420 
  87   1.0000      -0.396792       -10.7973 
  88   1.0000      -0.395940       -10.7741 
  89   1.0000      -0.395508       -10.7623 
  90   1.0000      -0.390310       -10.6209 
  91   1.0000      -0.387602       -10.5472 
  92   1.0000      -0.379116       -10.3163 
  93   1.0000      -0.374366       -10.1870 
  94   1.0000      -0.368969       -10.0402 
  95   1.0000      -0.346373        -9.4253 
  96   1.0000      -0.315636        -8.5889 
  97   1.0000      -0.241060        -6.5596 
  98   1.0000      -0.230124        -6.2620 
  99   1.0000      -0.226426        -6.1614 
 100   1.0000      -0.074589        -2.0297 
 101   0.0000       0.029836         0.8119 
 102   0.0000       0.046253         1.2586 
 103   0.0000       0.059802         1.6273 
 104   0.0000       0.077164         2.0997 
 105   0.0000       0.101963         2.7746 
 106   0.0000       0.111302         3.0287 
 107   0.0000       0.120441         3.2774 
 108   0.0000       0.126133         3.4322 
 109   0.0000       0.145408         3.9567 
 110   0.0000       0.147895         4.0244 
 111   0.0000       0.158550         4.3144 

                 SPIN DOWN ORBITALS
  NO   OCC          E(Eh)            E(eV) 
   0   1.0000     -24.718193      -672.6162 
   1   1.0000     -24.718166      -672.6155 
   2   1.0000     -24.708346      -672.3483 
   3   1.0000     -24.699060      -672.0956 
   4   1.0000     -24.697688      -672.0582 
   5   1.0000     -24.697149      -672.0436 
   6   1.0000     -24.696494      -672.0258 
   7   1.0000     -24.694594      -671.9741 
   8   1.0000     -24.692353      -671.9131 
   9   1.0000     -24.683578      -671.6743 
  10   1.0000     -24.683144      -671.6625 
  11   1.0000     -24.682770      -671.6523 
  12   1.0000     -24.682443      -671.6434 
  13   1.0000     -24.682043      -671.6325 
  14   1.0000     -24.681039      -671.6052 
  15   1.0000     -19.050781      -518.3981 
  16   1.0000     -19.049792      -518.3712 
  17   1.0000     -10.422454      -283.6094 
  18   1.0000     -10.349917      -281.6355 
  19   1.0000     -10.348823      -281.6058 
  20   1.0000     -10.344698      -281.4936 
  21   1.0000     -10.330998      -281.1207 
  22   1.0000     -10.330708      -281.1129 
  23   1.0000     -10.326267      -280.9920 
  24   1.0000     -10.243287      -278.7340 
  25   1.0000      -1.316253       -35.8171 
  26   1.0000      -1.273645       -34.6577 
  27   1.0000      -1.260107       -34.2893 
  28   1.0000      -1.253728       -34.1157 
  29   1.0000      -1.244976       -33.8775 
  30   1.0000      -1.239899       -33.7394 
  31   1.0000      -1.234266       -33.5861 
  32   1.0000      -1.229195       -33.4481 
  33   1.0000      -1.219765       -33.1915 
  34   1.0000      -1.211803       -32.9748 
  35   1.0000      -1.205941       -32.8153 
  36   1.0000      -1.200408       -32.6648 
  37   1.0000      -1.190695       -32.4005 
  38   1.0000      -1.188138       -32.3309 
  39   1.0000      -1.183121       -32.1944 
  40   1.0000      -1.013170       -27.5698 
  41   1.0000      -0.929663       -25.2974 
  42   1.0000      -0.782155       -21.2835 
  43   1.0000      -0.777366       -21.1532 
  44   1.0000      -0.746913       -20.3245 
  45   1.0000      -0.717250       -19.5174 
  46   1.0000      -0.682154       -18.5623 
  47   1.0000      -0.652775       -17.7629 
  48   1.0000      -0.630643       -17.1607 
  49   1.0000      -0.602843       -16.4042 
  50   1.0000      -0.598401       -16.2833 
  51   1.0000      -0.595830       -16.2134 
  52   1.0000      -0.585764       -15.9394 
  53   1.0000      -0.580049       -15.7839 
  54   1.0000      -0.578390       -15.7388 
  55   1.0000      -0.564929       -15.3725 
  56   1.0000      -0.560170       -15.2430 
  57   1.0000      -0.554066       -15.0769 
  58   1.0000      -0.551007       -14.9937 
  59   1.0000      -0.544694       -14.8219 
  60   1.0000      -0.538911       -14.6645 
  61   1.0000      -0.531773       -14.4703 
  62   1.0000      -0.528515       -14.3816 
  63   1.0000      -0.520373       -14.1601 
  64   1.0000      -0.476113       -12.9557 
  65   1.0000      -0.474211       -12.9039 
  66   1.0000      -0.469462       -12.7747 
  67   1.0000      -0.460368       -12.5272 
  68   1.0000      -0.458160       -12.4672 
  69   1.0000      -0.454749       -12.3743 
  70   1.0000      -0.450502       -12.2588 
  71   1.0000      -0.448141       -12.1945 
  72   1.0000      -0.445007       -12.1093 
  73   1.0000      -0.443983       -12.0814 
  74   1.0000      -0.441026       -12.0009 
  75   1.0000      -0.437823       -11.9138 
  76   1.0000      -0.435527       -11.8513 
  77   1.0000      -0.428933       -11.6719 
  78   1.0000      -0.427995       -11.6463 
  79   1.0000      -0.422637       -11.5005 
  80   1.0000      -0.416841       -11.3428 
  81   1.0000      -0.416457       -11.3324 
  82   1.0000      -0.415797       -11.3144 
  83   1.0000      -0.407889       -11.0992 
  84   1.0000      -0.405896       -11.0450 
  85   1.0000      -0.404945       -11.0191 
  86   1.0000      -0.400041       -10.8857 
  87   1.0000      -0.395836       -10.7713 
  88   1.0000      -0.392804       -10.6887 
  89   1.0000      -0.392124       -10.6702 
  90   1.0000      -0.389406       -10.5963 
  91   1.0000      -0.385086       -10.4787 
  92   1.0000      -0.374168       -10.1816 
  93   1.0000      -0.372858       -10.1460 
  94   1.0000      -0.363588        -9.8937 
  95   1.0000      -0.342373        -9.3164 
  96   1.0000      -0.312840        -8.5128 
  97   1.0000      -0.240371        -6.5408 
  98   1.0000      -0.229268        -6.2387 
  99   1.0000      -0.226212        -6.1556 
 100   0.0000      -0.003117        -0.0848 
 101   0.0000       0.038733         1.0540 
 102   0.0000       0.052974         1.4415 
 103   0.0000       0.066434         1.8078 
 104   0.0000       0.085242         2.3196 
 105   0.0000       0.107905         2.9362 
 106   0.0000       0.113319         3.0836 
 107   0.0000       0.121013         3.2929 
 108   0.0000       0.132811         3.6140 
 109   0.0000       0.147519         4.0142 
 110   0.0000       0.153796         4.1850 
*Only the first 10 virtual orbitals were printed.

                    ********************************
                    * MULLIKEN POPULATION ANALYSIS *
                    ********************************

--------------------------------------------
MULLIKEN ATOMIC CHARGES AND SPIN POPULATIONS
--------------------------------------------
   0 C :    0.139098    0.005818
   1 O :   -0.491182    0.004504
   2 O :   -0.498747    0.004082
   3 C :    0.349321    0.019980
   4 C :    0.285739    0.055039
   5 C :    0.293330    0.132649
   6 C :    0.254075    0.244401
   7 C :    0.224241    0.262405
   8 C :    0.281858    0.150369
   9 C :    0.441334    0.079714
  10 F :   -0.225574    0.000294
  11 F :   -0.230378    0.000350
  12 F :   -0.210637    0.000947
  13 F :   -0.215053    0.000455
  14 F :   -0.220697    0.001438
  15 F :   -0.221957    0.000951
  16 F :   -0.235668    0.003235
  17 F :   -0.241220    0.003542
  18 F :   -0.245149    0.005294
  19 F :   -0.240225    0.004805
  20 F :   -0.218925    0.003271
  21 F :   -0.217985    0.003134
  22 F :   -0.180525   -0.000100
  23 F :   -0.194428    0.013543
  24 F :   -0.180647   -0.000120
Sum of atomic charges         :   -2.0000000
Sum of atomic spin populations:    1.0000000

-----------------------------------------------------
MULLIKEN REDUCED ORBITAL CHARGES AND SPIN POPULATIONS
-----------------------------------------------------
CHARGE
  0 C s       :     3.053694  s :     3.053694
      pz      :     0.819939  p :     2.549040
      px      :     0.886216
      py      :     0.842886
      dz2     :     0.063920  d :     0.233425
      dxz     :     0.045698
      dyz     :     0.044167
      dx2y2   :     0.037945
      dxy     :     0.041695
      f0      :     0.003449  f :     0.024743
      f+1     :     0.002767
      f-1     :     0.005751
      f+2     :     0.004726
      f-2     :     0.003626
      f+3     :     0.002156
      f-3     :     0.002267

  1 O s       :     3.760665  s :     3.760665
      pz      :     1.415455  p :     4.701864
      px      :     1.648040
      py      :     1.638370
      dz2     :     0.009115  d :     0.026991
      dxz     :     0.006406
      dyz     :     0.006579
      dx2y2   :     0.002059
      dxy     :     0.002832
      f0      :     0.000445  f :     0.001661
      f+1     :     0.000293
      f-1     :     0.000301
      f+2     :     0.000232
      f-2     :     0.000270
      f+3     :     0.000060
      f-3     :     0.000061

  2 O s       :     3.760741  s :     3.760741
      pz      :     1.588930  p :     4.709485
      px      :     1.680833
      py      :     1.439722
      dz2     :     0.005058  d :     0.026871
      dxz     :     0.003746
      dyz     :     0.007174
      dx2y2   :     0.006100
      dxy     :     0.004792
      f0      :     0.000150  f :     0.001651
      f+1     :     0.000101
      f-1     :     0.000385
      f+2     :     0.000316
      f-2     :     0.000304
      f+3     :     0.000168
      f-3     :     0.000227

  3 C s       :     3.126657  s :     3.126657
      pz      :     0.601485  p :     2.256181
      px      :     0.971965
      py      :     0.682731
      dz2     :     0.049763  d :     0.241924
      dxz     :     0.048020
      dyz     :     0.058867
      dx2y2   :     0.038591
      dxy     :     0.046683
      f0      :     0.003677  f :     0.025918
      f+1     :     0.004480
      f-1     :     0.007238
      f+2     :     0.002193
      f-2     :     0.002180
      f+3     :     0.003623
      f-3     :     0.002527

  4 C s       :     3.161430  s :     3.161430
      pz      :     0.574363  p :     2.257230
      px      :     0.944533
      py      :     0.738334
      dz2     :     0.065194  d :     0.268769
      dxz     :     0.053366
      dyz     :     0.052010
      dx2y2   :     0.046450
      dxy     :     0.051749
      f0      :     0.004638  f :     0.026832
      f+1     :     0.003950
      f-1     :     0.006174
      f+2     :     0.002966
      f-2     :     0.004100
      f+3     :     0.002898
      f-3     :     0.002106

  5 C s       :     3.141914  s :     3.141914
      pz      :     0.555362  p :     2.261135
      px      :     0.914421
      py      :     0.791352
      dz2     :     0.071705  d :     0.277417
      dxz     :     0.053546
      dyz     :     0.047119
      dx2y2   :     0.056682
      dxy     :     0.048365
      f0      :     0.005439  f :     0.026204
      f+1     :     0.003626
      f-1     :     0.004621
      f+2     :     0.003565
      f-2     :     0.004704
      f+3     :     0.002336
      f-3     :     0.001914

  6 C s       :     3.138065  s :     3.138065
      pz      :     0.545320  p :     2.298752
      px      :     0.900160
      py      :     0.853272
      dz2     :     0.072733  d :     0.283884
      dxz     :     0.051136
      dyz     :     0.044189
      dx2y2   :     0.069669
      dxy     :     0.046158
      f0      :     0.005260  f :     0.025225
      f+1     :     0.003583
      f-1     :     0.004420
      f+2     :     0.003431
      f-2     :     0.004469
      f+3     :     0.002223
      f-3     :     0.001840

  7 C s       :     3.151315  s :     3.151315
      pz      :     0.544165  p :     2.311591
      px      :     0.907540
      py      :     0.859887
      dz2     :     0.074188  d :     0.287881
      dxz     :     0.050809
      dyz     :     0.043740
      dx2y2   :     0.074175
      dxy     :     0.044968
      f0      :     0.005183  f :     0.024972
      f+1     :     0.003611
      f-1     :     0.004419
      f+2     :     0.003366
      f-2     :     0.004359
      f+3     :     0.002189
      f-3     :     0.001844

  8 C s       :     3.118046  s :     3.118046
      pz      :     0.553851  p :     2.297965
      px      :     0.927085
      py      :     0.817030
      dz2     :     0.072978  d :     0.276251
      dxz     :     0.052448
      dyz     :     0.047005
      dx2y2   :     0.058566
      dxy     :     0.045254
      f0      :     0.005510  f :     0.025879
      f+1     :     0.003575
      f-1     :     0.004468
      f+2     :     0.003525
      f-2     :     0.004738
      f+3     :     0.002114
      f-3     :     0.001949

  9 C s       :     3.049727  s :     3.049727
      pz      :     0.614997  p :     2.147851
      px      :     0.811357
      py      :     0.721497
      dz2     :     0.071983  d :     0.322582
      dxz     :     0.067318
      dyz     :     0.059628
      dx2y2   :     0.068044
      dxy     :     0.055609
      f0      :     0.008190  f :     0.038506
      f+1     :     0.004337
      f-1     :     0.005035
      f+2     :     0.004066
      f-2     :     0.008157
      f+3     :     0.005134
      f-3     :     0.003588

 10 F s       :     3.905994  s :     3.905994
      pz      :     1.842585  p :     5.304048
      px      :     1.915660
      py      :     1.545803
      dz2     :     0.001880  d :     0.014881
      dxz     :     0.000741
      dyz     :     0.004500
      dx2y2   :     0.004607
      dxy     :     0.003154
      f0      :     0.000072  f :     0.000651
      f+1     :     0.000005
      f-1     :     0.000105
      f+2     :     0.000164
      f-2     :     0.000056
      f+3     :     0.000111
      f-3     :     0.000138

 11 F s       :     3.906975  s :     3.906975
      pz      :     1.488359  p :     5.308010
      px      :     1.922041
      py      :     1.897611
      dz2     :     0.007752  d :     0.014744
      dxz     :     0.003473
      dyz     :     0.003083
      dx2y2   :     0.000183
      dxy     :     0.000254
      f0      :     0.000325  f :     0.000648
      f+1     :     0.000144
      f-1     :     0.000151
      f+2     :     0.000009
      f-2     :     0.000015
      f+3     :     0.000001
      f-3     :     0.000001

 12 F s       :     3.909014  s :     3.909014
      pz      :     1.737954  p :     5.285664
      px      :     1.920305
      py      :     1.627405
      dz2     :     0.002301  d :     0.015291
      dxz     :     0.001336
      dyz     :     0.006114
      dx2y2   :     0.003174
      dxy     :     0.002366
      f0      :     0.000073  f :     0.000668
      f+1     :     0.000009
      f-1     :     0.000166
      f+2     :     0.000196
      f-2     :     0.000090
      f+3     :     0.000061
      f-3     :     0.000072

 13 F s       :     3.911828  s :     3.911828
      pz      :     1.530873  p :     5.287318
      px      :     1.917159
      py      :     1.839285
      dz2     :     0.006325  d :     0.015246
      dxz     :     0.003080
      dyz     :     0.004473
      dx2y2   :     0.000669
      dxy     :     0.000699
      f0      :     0.000219  f :     0.000661
      f+1     :     0.000106
      f-1     :     0.000223
      f+2     :     0.000049
      f-2     :     0.000055
      f+3     :     0.000005
      f-3     :     0.000004

 14 F s       :     3.909350  s :     3.909350
      pz      :     1.652600  p :     5.295876
      px      :     1.922717
      py      :     1.720559
      dz2     :     0.003342  d :     0.014833
      dxz     :     0.001945
      dyz     :     0.005993
      dx2y2   :     0.001947
      dxy     :     0.001605
      f0      :     0.000085  f :     0.000639
      f+1     :     0.000033
      f-1     :     0.000226
      f+2     :     0.000146
      f-2     :     0.000092
      f+3     :     0.000027
      f-3     :     0.000030

 15 F s       :     3.910692  s :     3.910692
      pz      :     1.597993  p :     5.295820
      px      :     1.923358
      py      :     1.774468
      dz2     :     0.004478  d :     0.014810
      dxz     :     0.002353
      dyz     :     0.005481
      dx2y2   :     0.001338
      dxy     :     0.001160
      f0      :     0.000123  f :     0.000635
      f+1     :     0.000056
      f-1     :     0.000245
      f+2     :     0.000103
      f-2     :     0.000079
      f+3     :     0.000014
      f-3     :     0.000014

 16 F s       :     3.909611  s :     3.909611
      pz      :     1.625125  p :     5.311165
      px      :     1.926181
      py      :     1.759859
      dz2     :     0.003850  d :     0.014287
      dxz     :     0.002063
      dyz     :     0.005499
      dx2y2   :     0.001625
      dxy     :     0.001250
      f0      :     0.000098  f :     0.000605
      f+1     :     0.000043
      f-1     :     0.000231
      f+2     :     0.000117
      f-2     :     0.000080
      f+3     :     0.000017
      f-3     :     0.000020

 17 F s       :     3.910194  s :     3.910194
      pz      :     1.634756  p :     5.316527
      px      :     1.926981
      py      :     1.754790
      dz2     :     0.003600  d :     0.013914
      dxz     :     0.001966
      dyz     :     0.005425
      dx2y2   :     0.001650
      dxy     :     0.001273
      f0      :     0.000090  f :     0.000585
      f+1     :     0.000039
      f-1     :     0.000222
      f+2     :     0.000117
      f-2     :     0.000079
      f+3     :     0.000018
      f-3     :     0.000021

 18 F s       :     3.911101  s :     3.911101
      pz      :     1.637717  p :     5.319728
      px      :     1.927870
      py      :     1.754141
      dz2     :     0.003518  d :     0.013747
      dxz     :     0.001905
      dyz     :     0.005392
      dx2y2   :     0.001678
      dxy     :     0.001253
      f0      :     0.000086  f :     0.000574
      f+1     :     0.000037
      f-1     :     0.000218
      f+2     :     0.000117
      f-2     :     0.000077
      f+3     :     0.000017
      f-3     :     0.000021

 19 F s       :     3.911018  s :     3.911018
      pz      :     1.622055  p :     5.314565
      px      :     1.927062
      py      :     1.765447
      dz2     :     0.003889  d :     0.014054
      dxz     :     0.002046
      dyz     :     0.005358
      dx2y2   :     0.001572
      dxy     :     0.001188
      f0      :     0.000099  f :     0.000589
      f+1     :     0.000043
      f-1     :     0.000227
      f+2     :     0.000111
      f-2     :     0.000076
      f+3     :     0.000015
      f-3     :     0.000018

 20 F s       :     3.909795  s :     3.909795
      pz      :     1.628393  p :     5.293925
      px      :     1.921445
      py      :     1.744086
      dz2     :     0.003712  d :     0.014581
      dxz     :     0.002019
      dyz     :     0.005776
      dx2y2   :     0.001681
      dxy     :     0.001392
      f0      :     0.000094  f :     0.000624
      f+1     :     0.000039
      f-1     :     0.000235
      f+2     :     0.000127
      f-2     :     0.000085
      f+3     :     0.000021
      f-3     :     0.000022

 21 F s       :     3.909978  s :     3.909978
      pz      :     1.613573  p :     5.292730
      px      :     1.921068
      py      :     1.758089
      dz2     :     0.004039  d :     0.014650
      dxz     :     0.002145
      dyz     :     0.005655
      dx2y2   :     0.001522
      dxy     :     0.001288
      f0      :     0.000105  f :     0.000627
      f+1     :     0.000046
      f-1     :     0.000240
      f+2     :     0.000117
      f-2     :     0.000083
      f+3     :     0.000018
      f-3     :     0.000018

 22 F s       :     3.907900  s :     3.907900
      pz      :     1.620863  p :     5.255911
      px      :     1.898482
      py      :     1.736565
      dz2     :     0.004226  d :     0.015981
      dxz     :     0.002249
      dyz     :     0.006316
      dx2y2   :     0.001676
      dxy     :     0.001514
      f0      :     0.000116  f :     0.000734
      f+1     :     0.000051
      f-1     :     0.000267
      f+2     :     0.000145
      f-2     :     0.000103
      f+3     :     0.000027
      f-3     :     0.000025

 23 F s       :     3.906866  s :     3.906866
      pz      :     1.905175  p :     5.271932
      px      :     1.623937
      py      :     1.742820
      dz2     :     0.002235  d :     0.014962
      dxz     :     0.001658
      dyz     :     0.001316
      dx2y2   :     0.003523
      dxy     :     0.006230
      f0      :     0.000052  f :     0.000668
      f+1     :     0.000089
      f-1     :     0.000062
      f+2     :     0.000008
      f-2     :     0.000085
      f+3     :     0.000164
      f-3     :     0.000208

 24 F s       :     3.907955  s :     3.907955
      pz      :     1.601230  p :     5.255986
      px      :     1.900450
      py      :     1.754306
      dz2     :     0.004645  d :     0.015973
      dxz     :     0.002365
      dyz     :     0.006166
      dx2y2   :     0.001456
      dxy     :     0.001341
      f0      :     0.000131  f :     0.000733
      f+1     :     0.000059
      f-1     :     0.000276
      f+2     :     0.000130
      f-2     :     0.000096
      f+3     :     0.000021
      f-3     :     0.000020


SPIN
  0 C s       :     0.002378  s :     0.002378
      pz      :     0.001345  p :     0.002780
      px      :    -0.000969
      py      :     0.002404
      dz2     :     0.000026  d :     0.000618
      dxz     :    -0.000018
      dyz     :     0.000024
      dx2y2   :     0.000489
      dxy     :     0.000098
      f0      :     0.000007  f :     0.000043
      f+1     :    -0.000001
      f-1     :    -0.000014
      f+2     :     0.000017
      f-2     :    -0.000003
      f+3     :     0.000029
      f-3     :     0.000008

  1 O s       :    -0.000031  s :    -0.000031
      pz      :     0.002134  p :     0.004534
      px      :    -0.000823
      py      :     0.003224
      dz2     :    -0.000019  d :     0.000001
      dxz     :    -0.000001
      dyz     :     0.000017
      dx2y2   :     0.000002
      dxy     :     0.000002
      f0      :    -0.000000  f :    -0.000000
      f+1     :     0.000001
      f-1     :    -0.000000
      f+2     :     0.000000
      f-2     :    -0.000000
      f+3     :    -0.000000
      f-3     :    -0.000000

  2 O s       :     0.000155  s :     0.000155
      pz      :     0.001092  p :     0.003929
      px      :    -0.000076
      py      :     0.002913
      dz2     :    -0.000003  d :    -0.000002
      dxz     :    -0.000001
      dyz     :     0.000007
      dx2y2   :    -0.000011
      dxy     :     0.000006
      f0      :    -0.000000  f :    -0.000001
      f+1     :     0.000000
      f-1     :    -0.000000
      f+2     :    -0.000000
      f-2     :    -0.000001
      f+3     :     0.000001
      f-3     :    -0.000000

  3 C s       :    -0.004984  s :    -0.004984
      pz      :     0.000745  p :     0.020229
      px      :     0.004758
      py      :     0.014725
      dz2     :     0.000674  d :     0.004649
      dxz     :    -0.000029
      dyz     :    -0.000021
      dx2y2   :     0.003870
      dxy     :     0.000154
      f0      :    -0.000011  f :     0.000087
      f+1     :     0.000009
      f-1     :     0.000002
      f+2     :     0.000021
      f-2     :     0.000003
      f+3     :     0.000076
      f-3     :    -0.000013

  4 C s       :    -0.011212  s :    -0.011212
      pz      :     0.001595  p :     0.054194
      px      :     0.001939
      py      :     0.050660
      dz2     :     0.002147  d :     0.011955
      dxz     :    -0.000021
      dyz     :     0.000057
      dx2y2   :     0.008818
      dxy     :     0.000955
      f0      :    -0.000016  f :     0.000102
      f+1     :     0.000021
      f-1     :    -0.000005
      f+2     :     0.000024
      f-2     :     0.000004
      f+3     :     0.000130
      f-3     :    -0.000055

  5 C s       :    -0.027294  s :    -0.027294
      pz      :     0.003141  p :     0.133289
      px      :    -0.005037
      py      :     0.135186
      dz2     :     0.005446  d :     0.026667
      dxz     :    -0.000127
      dyz     :     0.000071
      dx2y2   :     0.020880
      dxy     :     0.000397
      f0      :    -0.000012  f :    -0.000012
      f+1     :     0.000047
      f-1     :    -0.000034
      f+2     :     0.000033
      f-2     :     0.000013
      f+3     :     0.000097
      f-3     :    -0.000155

  6 C s       :    -0.026586  s :    -0.026586
      pz      :     0.004827  p :     0.227971
      px      :    -0.008251
      py      :     0.231395
      dz2     :     0.009068  d :     0.043290
      dxz     :    -0.000187
      dyz     :     0.000086
      dx2y2   :     0.033077
      dxy     :     0.001245
      f0      :    -0.000019  f :    -0.000275
      f+1     :     0.000061
      f-1     :    -0.000063
      f+2     :     0.000057
      f-2     :     0.000018
      f+3     :    -0.000044
      f-3     :    -0.000284

  7 C s       :    -0.019174  s :    -0.019174
      pz      :     0.004980  p :     0.233009
      px      :    -0.013504
      py      :     0.241533
      dz2     :     0.010414  d :     0.048901
      dxz     :    -0.000180
      dyz     :     0.000067
      dx2y2   :     0.037647
      dxy     :     0.000954
      f0      :    -0.000023  f :    -0.000332
      f+1     :     0.000065
      f-1     :    -0.000057
      f+2     :     0.000063
      f-2     :     0.000019
      f+3     :    -0.000077
      f-3     :    -0.000320

  8 C s       :    -0.025499  s :    -0.025499
      pz      :     0.003032  p :     0.142013
      px      :    -0.004598
      py      :     0.143579
      dz2     :     0.006793  d :     0.033891
      dxz     :    -0.000143
      dyz     :     0.000043
      dx2y2   :     0.026894
      dxy     :     0.000305
      f0      :    -0.000015  f :    -0.000037
      f+1     :     0.000068
      f-1     :    -0.000011
      f+2     :     0.000034
      f-2     :     0.000020
      f+3     :     0.000068
      f-3     :    -0.000202

  9 C s       :     0.017548  s :     0.017548
      pz      :     0.002737  p :     0.051134
      px      :    -0.007766
      py      :     0.056163
      dz2     :     0.002118  d :     0.010672
      dxz     :    -0.000128
      dyz     :     0.000053
      dx2y2   :     0.005836
      dxy     :     0.002792
      f0      :     0.000007  f :     0.000360
      f+1     :     0.000022
      f-1     :    -0.000072
      f+2     :     0.000015
      f-2     :    -0.000009
      f+3     :     0.000454
      f-3     :    -0.000058

 10 F s       :    -0.000178  s :    -0.000178
      pz      :     0.000301  p :     0.000428
      px      :    -0.000121
      py      :     0.000247
      dz2     :     0.000006  d :     0.000042
      dxz     :     0.000007
      dyz     :     0.000002
      dx2y2   :     0.000025
      dxy     :     0.000002
      f0      :     0.000000  f :     0.000002
      f+1     :     0.000000
      f-1     :     0.000000
      f+2     :     0.000000
      f-2     :     0.000000
      f+3     :     0.000000
      f-3     :     0.000001

 11 F s       :    -0.000005  s :    -0.000005
      pz      :    -0.000268  p :     0.000292
      px      :     0.000164
      py      :     0.000395
      dz2     :     0.000005  d :     0.000062
      dxz     :     0.000021
      dyz     :     0.000016
      dx2y2   :     0.000020
      dxy     :     0.000001
      f0      :    -0.000000  f :     0.000002
      f+1     :     0.000001
      f-1     :     0.000000
      f+2     :     0.000000
      f-2     :     0.000000
      f+3     :     0.000000
      f-3     :     0.000000

 12 F s       :    -0.000101  s :    -0.000101
      pz      :     0.001660  p :     0.000954
      px      :    -0.000249
      py      :    -0.000457
      dz2     :     0.000001  d :     0.000091
[...]
 11:     57.52   0.000478    2.41  0.002591  ( 0.038166 -0.006604 -0.033023)
 12:     63.28   0.000089    0.45  0.000439  ( 0.013792 -0.013743  0.007763)
 13:     71.92   0.000299    1.51  0.001295  ( 0.035210 -0.007296 -0.001542)
 14:     96.13   0.002370   11.98  0.007694  ( 0.083527 -0.023815  0.012241)
 15:    101.09   0.000333    1.68  0.001028  (-0.023844 -0.018480  0.010881)
 16:    129.29   0.034355  173.62  0.082920  (-0.285873  0.033440 -0.008834)
 17:    162.80   0.014399   72.77  0.027601  ( 0.165058  0.013031 -0.013662)
 18:    184.49   0.000490    2.48  0.000829  ( 0.025058 -0.005112  0.013234)
 19:    206.00   0.001152    5.82  0.001745  ( 0.007634  0.004463  0.040821)
 20:    214.17   0.000076    0.38  0.000110  (-0.008665 -0.005577 -0.002046)
 21:    231.10   0.000958    4.84  0.001294  ( 0.028434  0.003861  0.021685)
 22:    233.94   0.020924  105.74  0.027912  ( 0.167061  0.001363 -0.000763)
 23:    247.71   0.000011    0.06  0.000014  (-0.001040  0.002470  0.002577)
 24:    253.60   0.000091    0.46  0.000112  (-0.008563  0.000337  0.006198)
 25:    262.62   0.000039    0.20  0.000047  (-0.005364 -0.000444 -0.004189)
 26:    269.69   0.000307    1.55  0.000356  ( 0.014441  0.002419 -0.011887)
 27:    311.19   0.001145    5.79  0.001149  ( 0.033630  0.004045 -0.001146)
 28:    320.17   0.008665   43.79  0.008445  (-0.091873 -0.002054  0.000665)
 29:    322.42   0.006910   34.92  0.006688  ( 0.081780 -0.000186  0.000603)
 30:    327.99   0.000046    0.23  0.000043  ( 0.004878 -0.004385 -0.000544)
 31:    337.11   0.006613   33.42  0.006122  ( 0.077651 -0.009401  0.002022)
 32:    347.98   0.003828   19.34  0.003433  ( 0.058548 -0.000577 -0.002144)
 33:    361.86   0.000062    0.31  0.000053  ( 0.006577  0.000091 -0.003186)
 34:    364.73   0.000344    1.74  0.000294  (-0.011859  0.003788 -0.011798)
 35:    374.62   0.000453    2.29  0.000377  ( 0.017859 -0.006818  0.003403)
 36:    417.43   0.000020    0.10  0.000015  ( 0.003242  0.000229  0.002123)
 37:    459.67   0.000325    1.64  0.000220  (-0.009571 -0.009862 -0.005616)
 38:    466.59   0.000330    1.67  0.000221  (-0.003268 -0.003097  0.014158)
 39:    505.30   0.004308   21.77  0.002661  ( 0.050985 -0.005485  0.005573)
 40:    510.99   0.000264    1.34  0.000161  (-0.011383 -0.000261  0.005629)
 41:    530.60   0.002963   14.98  0.001743  (-0.028438 -0.026889  0.014528)
 42:    545.09   0.000967    4.89  0.000554  ( 0.021511  0.009354  0.001819)
 43:    562.54   0.006053   30.59  0.003358  (-0.054557  0.018407 -0.006546)
 44:    572.29   0.001960    9.90  0.001069  (-0.022277 -0.019863  0.013332)
 45:    587.59   0.000617    3.12  0.000328  ( 0.016600  0.002608  0.006733)
 46:    602.58   0.002342   11.83  0.001213  ( 0.032530  0.010006  0.007378)
 47:    614.41   0.007480   37.80  0.003799  ( 0.060672 -0.009753  0.004759)
 48:    633.69   0.088319  446.33  0.043493  ( 0.208483  0.005237 -0.000403)
 49:    658.95   0.013270   67.06  0.006284  ( 0.078480 -0.010941  0.002361)
 50:    675.40   0.030804  155.67  0.014233  (-0.119104  0.000709  0.006813)
 51:    704.54   0.013702   69.25  0.006069  (-0.077901 -0.000634 -0.000579)
 52:    733.12   0.029816  150.68  0.012692  (-0.109294  0.027224  0.002274)
 53:    793.55   0.030356  153.41  0.011938  (-0.090362 -0.048854  0.037226)
 54:    816.45   0.055320  279.56  0.021144  (-0.144413  0.017004 -0.000528)
 55:    851.92   0.001713    8.66  0.000627  (-0.013319  0.006254 -0.020270)
 56:    855.76   0.033306  168.32  0.012146  (-0.109897  0.007945  0.002267)
 57:    939.82   0.088422  446.85  0.029360  ( 0.143969  0.052392 -0.076734)
 58:    964.34   0.027362  138.28  0.008854  ( 0.085748  0.038569 -0.003756)
 59:    973.58   0.066172  334.40  0.021210  ( 0.131553  0.059652  0.018594)
 60:    986.15   0.269498  1361.93  0.085282  (-0.258895  0.132830 -0.024728)
 61:   1001.01   0.053432  270.02  0.016657  (-0.003430 -0.021474 -0.127218)
 62:   1006.20   0.013724   69.36  0.004257  (-0.008867 -0.008087  0.064129)
 63:   1031.21   0.097875  494.62  0.029619  ( 0.103085 -0.085009 -0.108470)
 64:   1037.25   0.171434  866.36  0.051577  (-0.163112  0.130224 -0.089516)
 65:   1071.53   0.124643  629.90  0.036300  ( 0.053650  0.100249  0.152879)
 66:   1075.91   0.038090  192.49  0.011048  (-0.069146  0.042127  0.067023)
 67:   1087.15   0.073752  372.71  0.021170  ( 0.009985  0.065121 -0.129730)
 68:   1106.14   0.043753  221.11  0.012344  ( 0.023183  0.108631  0.002329)
 69:   1130.99   0.102836  519.69  0.028375  (-0.026620  0.000258 -0.166331)
 70:   1132.59   0.172659  872.55  0.047573  ( 0.213977  0.021363 -0.036475)
 71:   1154.08   0.157228  794.57  0.042515  (-0.201475 -0.038923 -0.020186)
 72:   1264.39   0.088682  448.16  0.021888  ( 0.141181  0.041605 -0.014979)
 73:   1361.45   0.115572  584.05  0.026491  (-0.159332 -0.025031  0.021851)
 74:   1709.59   0.161780  817.57  0.029531  (-0.008544  0.108098  0.133314)

* The epsilon (eps) is given for a Dirac delta lineshape.
** The dipole moment derivative (T) already includes vibrational overlap.

The first frequency considered to be a vibration is 6
The total number of vibrations considered is 69


--------------------------
THERMOCHEMISTRY AT 298.15K
--------------------------

Temperature         ...   298.15 K
Pressure            ...     1.00 atm
Total Mass          ...   413.06 AMU
Quasi RRHO          ...     True
Cut-Off Frequency   ...     1.00 cm^-1

Throughout the following assumptions are being made:
  (1) The electronic state is orbitally nondegenerate
      but the spin degeneracy is treated
  (2) There are no thermally accessible electronically excited states
  (3) Hindered rotations indicated by low frequency modes are not
      treated as such but are treated as vibrations and this may
      cause some error
  (4) All equations used are the standard statistical mechanics
      equations for an ideal gas
  (5) All vibrations are strictly harmonic

freq.      24.31  E(vib)   ...       0.56 
freq.      34.88  E(vib)   ...       0.54 
freq.      36.79  E(vib)   ...       0.54 
freq.      40.92  E(vib)   ...       0.54 
freq.      47.42  E(vib)   ...       0.53 
freq.      57.52  E(vib)   ...       0.51 
freq.      63.28  E(vib)   ...       0.51 
freq.      71.92  E(vib)   ...       0.50 
freq.      96.13  E(vib)   ...       0.47 
freq.     101.09  E(vib)   ...       0.46 
freq.     129.29  E(vib)   ...       0.43 
freq.     162.80  E(vib)   ...       0.39 
freq.     184.49  E(vib)   ...       0.37 
freq.     206.00  E(vib)   ...       0.35 
freq.     214.17  E(vib)   ...       0.34 
freq.     231.10  E(vib)   ...       0.32 
freq.     233.94  E(vib)   ...       0.32 
freq.     247.71  E(vib)   ...       0.31 
freq.     253.60  E(vib)   ...       0.30 
freq.     262.62  E(vib)   ...       0.29 
freq.     269.69  E(vib)   ...       0.29 
freq.     311.19  E(vib)   ...       0.25 
freq.     320.17  E(vib)   ...       0.25 
freq.     322.42  E(vib)   ...       0.25 
freq.     327.99  E(vib)   ...       0.24 
freq.     337.11  E(vib)   ...       0.24 
freq.     347.98  E(vib)   ...       0.23 
freq.     361.86  E(vib)   ...       0.22 
freq.     364.73  E(vib)   ...       0.22 
freq.     374.62  E(vib)   ...       0.21 
freq.     417.43  E(vib)   ...       0.18 
freq.     459.67  E(vib)   ...       0.16 
freq.     466.59  E(vib)   ...       0.16 
freq.     505.30  E(vib)   ...       0.14 
freq.     510.99  E(vib)   ...       0.14 
freq.     530.60  E(vib)   ...       0.13 
freq.     545.09  E(vib)   ...       0.12 
freq.     562.54  E(vib)   ...       0.11 
freq.     572.29  E(vib)   ...       0.11 
freq.     587.59  E(vib)   ...       0.10 
freq.     602.58  E(vib)   ...       0.10 
freq.     614.41  E(vib)   ...       0.10 
freq.     633.69  E(vib)   ...       0.09 
freq.     658.95  E(vib)   ...       0.08 
freq.     675.40  E(vib)   ...       0.08 
freq.     704.54  E(vib)   ...       0.07 
freq.     733.12  E(vib)   ...       0.06 
freq.     793.55  E(vib)   ...       0.05 
freq.     816.45  E(vib)   ...       0.05 
freq.     851.92  E(vib)   ...       0.04 
freq.     855.76  E(vib)   ...       0.04 
freq.     939.82  E(vib)   ...       0.03 
freq.     964.34  E(vib)   ...       0.03 
freq.     973.58  E(vib)   ...       0.03 
freq.     986.15  E(vib)   ...       0.02 
freq.    1001.01  E(vib)   ...       0.02 
freq.    1006.20  E(vib)   ...       0.02 
freq.    1031.21  E(vib)   ...       0.02 
freq.    1037.25  E(vib)   ...       0.02 
freq.    1071.53  E(vib)   ...       0.02 
freq.    1075.91  E(vib)   ...       0.02 
freq.    1087.15  E(vib)   ...       0.02 
freq.    1106.14  E(vib)   ...       0.02 
freq.    1130.99  E(vib)   ...       0.01 
freq.    1132.59  E(vib)   ...       0.01 
freq.    1154.08  E(vib)   ...       0.01 
freq.    1264.39  E(vib)   ...       0.01 
freq.    1361.45  E(vib)   ...       0.01 
freq.    1709.59  E(vib)   ...       0.00 

------------
INNER ENERGY
------------

The inner energy is: U= E(el) + E(ZPE) + E(vib) + E(rot) + E(trans)
    E(el)   - is the total energy from the electronic structure calculation
              = E(kin-el) + E(nuc-el) + E(el-el) + E(nuc-nuc)
    E(ZPE)  - the the zero temperature vibrational energy from the frequency calculation
    E(vib)  - the the finite temperature correction to E(ZPE) due to population
              of excited vibrational states
    E(rot)  - is the rotational thermal energy
    E(trans)- is the translational thermal energy

Summary of contributions to the inner energy U:
Electronic energy                ...  -1953.23451388 Eh
Zero point energy                ...      0.08923481 Eh      56.00 kcal/mol
Thermal vibrational correction   ...      0.02130810 Eh      13.37 kcal/mol
Thermal rotational correction    ...      0.00141627 Eh       0.89 kcal/mol
Thermal translational correction ...      0.00141627 Eh       0.89 kcal/mol
-----------------------------------------------------------------------
Total thermal energy                  -1953.12113842 Eh


Summary of corrections to the electronic energy:
(perhaps to be used in another calculation)
Total thermal correction                  0.02414065 Eh      15.15 kcal/mol
Non-thermal (ZPE) correction              0.08923481 Eh      56.00 kcal/mol
-----------------------------------------------------------------------
Total correction                          0.11337546 Eh      71.14 kcal/mol


--------
ENTHALPY
--------

The enthalpy is H = U + kB*T
                kB is Boltzmann's constant
Total thermal energy              ...  -1953.12113842 Eh 
Thermal Enthalpy correction       ...      0.00094421 Eh       0.59 kcal/mol
-----------------------------------------------------------------------
Total Enthalpy                    ...  -1953.12019421 Eh


Note: Only C1 symmetry has been detected, increase convergence thresholds 
      if your molecule has a higher symmetry. Symmetry factor of 1.0 is   
      used for the rotational entropy correction. 
 

Note: Rotational entropy computed according to Herzberg 
Infrared and Raman Spectra, Chapter V,1, Van Nostrand Reinhold, 1945 
Point Group:  C1, Symmetry Number:   1  
Rotational constants in cm-1:     0.021730     0.003375     0.003347 

Vibrational entropy computed according to the QRRHO of S. Grimme
Chem.Eur.J. 2012 18 9955 using a reference frequency of 100.0 cm-1


-------
ENTROPY
-------

The entropy contributions are T*S = T*(S(el)+S(vib)+S(rot)+S(trans))
     S(el)   - electronic entropy
     S(vib)  - vibrational entropy
     S(rot)  - rotational entropy
     S(trans)- translational entropy
The entropies will be listed as multiplied by the temperature to get
units of energy

Electronic entropy                ...      0.00065446 Eh      0.41 kcal/mol
Vibrational entropy               ...      0.03809646 Eh     23.91 kcal/mol
Rotational entropy                ...      0.01669610 Eh     10.48 kcal/mol
Translational entropy             ...      0.02088010 Eh     13.10 kcal/mol
-----------------------------------------------------------------------
Final entropy term                ...      0.07632712 Eh     47.90 kcal/mol

In case the symmetry of your molecule has not been determined correctly
or in case you have a reason to use a different symmetry number we print 
out the resulting rotational entropy values for sn=1,12:

 non-linear molecules -----------------------------------
|  sn= 1 | S(rot)=       0.01669610 Eh     10.48 kcal/mol|
|  sn= 2 | S(rot)=       0.01604165 Eh     10.07 kcal/mol|
|  sn= 3 | S(rot)=       0.01565881 Eh      9.83 kcal/mol|
|  sn= 4 | S(rot)=       0.01538719 Eh      9.66 kcal/mol|
|  sn= 5 | S(rot)=       0.01517650 Eh      9.52 kcal/mol|
|  sn= 6 | S(rot)=       0.01500436 Eh      9.42 kcal/mol|
|  sn= 7 | S(rot)=       0.01485881 Eh      9.32 kcal/mol|
|  sn= 8 | S(rot)=       0.01473273 Eh      9.24 kcal/mol|
|  sn= 9 | S(rot)=       0.01462153 Eh      9.18 kcal/mol|
|  sn=10 | S(rot)=       0.01452205 Eh      9.11 kcal/mol|
|  sn=11 | S(rot)=       0.01443206 Eh      9.06 kcal/mol|
|  sn=12 | S(rot)=       0.01434990 Eh      9.00 kcal/mol|
 linear molecules ---------------------------------------
|  Dinfh | S(rot)=       0.01070743 Eh      6.72 kcal/mol|
|  Cinfv | S(rot)=       0.01136189 Eh      7.13 kcal/mol|
 --------------------------------------------------------


-------------------
GIBBS FREE ENERGY
-------------------

The Gibbs free energy is G = H - T*S

Total enthalpy                    ...  -1953.12019421 Eh 
Total entropy correction          ...     -0.07632712 Eh    -47.90 kcal/mol
-----------------------------------------------------------------------
Final Gibbs free energy         ...  -1953.19652133 Eh

For completeness - the Gibbs free energy minus the electronic energy
G-E(el)                           ...      0.03799255 Eh     23.84 kcal/mol


Maximum memory used throughout the entire PROP-calculation: 563.2 MB

--------------------------------
SUGGESTED CITATIONS FOR THIS RUN
--------------------------------

Below you find a list of papers that are relevant to this ORCA run
We neither can nor want to force you to cite these papers, but we appreciate if you do
You receive ORCA, which is the product of decades of hard work by many enthusiastic individuals, for free
The only thing we kindly ask in return is that you cite our papers,
We deeply appreciate it, if you show your appreciation for ORCA by not just citing the generic ORCA reference.

Please note that relegating all ORCA citations to the supporting information does *not* help us.
SI sections are not indexed - citations you put there will not count into any citation statistics
But we need these citations in order to attract the funding resources that allow us to do what we are doing

Therefore, if you are a happy ORCA user, please consider citing a few of the papers listed below in the main body of your paper

In addition to the list printed below, the program has created the file rf_mecn_opt_B3L_D_A.bibtex that contains the list in bibtex format
You can import this file easily into all common literature databanks and citation aid programs


List of essential papers. We consider these as the minimum necessary citations

  1. Neese,F.
     Software update: the ORCA program system, version 5.0
     WIRES Comput. Molec. Sci., 2022 12(1)e1606
     doi.org/10.1002/wcms.1606

List of papers to cite with high priority. The work reported in these papers was absolutely
necessary for this run to complete.
Our perspective: the developers of density functionals and basis sets usually get cited in chemistry papers
Good! But without the algorithms to do something with them, the functionals or basis sets would not do anything.
Hence, in our opinion, the algorithm design and method developments papers are equally worthy of getting cited

  1. Neese,F.
     An improvement of the resolution of the identity approximation for the formation of the Coulomb matrix
     J. Comp. Chem., 2003 24(14)1740-1747
     doi.org/10.1002/jcc.10318
  2. Neese,F.; Wennmohs,F.; Hansen,A.; Becker,U.
     Efficient, approximate and parallel Hartree-Fock and hybrid DFT calculations. A 'chain-of-spheres' algorithm for the Hartree-Fock exchange
     Chem. Phys., 2009 356(1-3)98-109
     doi.org/10.1016/j.chemphys.2008.10.036
  3. Bykov,D.; Petrenko,T.; Izsak,R.; Kossmann,S.; Becker,U.; Valeev,E.; Neese,F.
     Efficient implementation of the analytic second derivatives of Hartree-Fock and hybrid DFT energies: a detailed analysis of different approximations
     Molec. Phys., 2015 113 1961-1977
     doi.org/10.1080/00268976.2015.1025114
  4. Garcia-Rates,M.; Neese,F.
     Efficient implementation of the analytical second derivatives of hartree-fock and hybrid DFT energies within the framework of the conductor-like polarizable continuum model
     J. Comput. Chem., 2019 40 1816-1828
     doi.org/10.1002/jcc.25833
  5. Garcia-Rates,M.; Neese,F.
     Effect of the Solute Cavity on the Solvation Energy and its Derivatives within the Framework of the Gaussian Charge Scheme
     J. Comput. Chem., 2020 41 922-939
     doi.org/10.1002/jcc.26139
  6. Helmich-Paris,B.; de Souza,B.; Neese,F.; Izsák,R.
     An improved chain of spheres for exchange algorithm
     J. Chem. Phys., 2021 155 104109
     doi.org/doi: 10.1063/5.0058766.
  7. Neese,F.
     The SHARK Integral Generation and Digestion System
     J. Comp. Chem., 2022  1-16
     doi.org/10.1002/jcc.26942
  8. Grimme,S.; Antony,J.; Ehrlich,S.; Krieg,H.
     A consistent and accurate ab initio parametrization of density functional dispersion correction (DFT-D) for the 94 elements H-Pu
     J. Chem. Phys., 2010 132 154104
     doi.org/10.1063/1.3382344
  9. Grimme,S.; Ehrlich,S.; Goerigk,L.
     Effect of the damping function in dispersion corrected density functional theory
     J. Comput. Chem., 2011 32(7)1456-1465
     doi.org/10.1002/jcc.21759

List of suggested additional citations. These are papers that are important in the 'surrounding' of 
of this run, or papers that preceded the highly important papers. If you like your results we are grateful for a citation.

  1. Izsak,R.; Neese,F.
     An overlap fitted chain of spheres exchange method
     J. Chem. Phys., 2011 135 144105
     doi.org/10.1063/1.3646921
  2. Izsak,R.; Hansen,A.; Neese,F.
     The resolution of identity and chain of spheres approximations for the LPNO-CCSD singles Fock term
     Molec. Phys., 2012 110 2413-2417
     doi.org/10.1080/00268976.2012.687466
  3. Neese,F.
     The ORCA program system
     WIRES Comput. Molec. Sci., 2012 2(1)73-78
     doi.org/10.1002/wcms.81
  4. Izsak,R.; Neese,F.; Klopper,W.
     Robust fitting techniques in the chain of spheres approximation to the Fock exchange: The role of the complementary space
     J. Chem. Phys., 2013 139 
     doi.org/10.1063/1.4819264
  5. Neese,F.
     Software update: the ORCA program system, version 4.0
     WIRES Comput. Molec. Sci., 2018 8(1)1-6
     doi.org/10.1002/wcms.1327
  6. Neese,F.; Wennmohs,F.; Becker,U.; Riplinger,C.
     The ORCA quantum chemistry program package
     J. Chem. Phys., 2020 152 Art. No. L224108
     doi.org/10.1063/5.0004608

List of optional additional citations

  1. Neese,F.
     Approximate second-order SCF convergence for spin unrestricted wavefunctions
     Chem. Phys. Lett., 2000 325(1-3)93-98
     doi.org/10.1016/s0009-2614(00)00662-x

Timings for individual modules:

Sum of individual times          ...     1365.215 sec (=  22.754 min)
Startup calculation              ...        4.150 sec (=   0.069 min)   0.3 %
SCF iterations                   ...      130.454 sec (=   2.174 min)   9.6 %
Property integrals               ...      276.212 sec (=   4.604 min)  20.2 %
SCF Response                     ...      675.074 sec (=  11.251 min)  49.4 %
Property calculations            ...      279.325 sec (=   4.655 min)  20.5 %
                             ****ORCA TERMINATED NORMALLY****
TOTAL RUN TIME: 0 days 0 hours 22 minutes 46 seconds 59 msec
