
                                 *****************
                                 * O   R   C   A *
                                 *****************

                                            #,                                       
                                            ###                                      
                                            ####                                     
                                            #####                                    
                                            ######                                   
                                           ########,                                 
                                     ,,################,,,,,                         
                               ,,#################################,,                 
                          ,,##########################################,,             
                       ,#########################################, ''#####,          
                    ,#############################################,,   '####,        
                  ,##################################################,,,,####,       
                ,###########''''           ''''###############################       
              ,#####''   ,,,,##########,,,,          '''####'''          '####       
            ,##' ,,,,###########################,,,                        '##       
           ' ,,###''''                  '''############,,,                           
         ,,##''                                '''############,,,,        ,,,,,,###''
      ,#''                                            '''#######################'''  
     '                                                          ''''####''''         
             ,#######,   #######,   ,#######,      ##                                
            ,#'     '#,  ##    ##  ,#'     '#,    #''#        ,####,   ,####,        
            ##       ##  ##   ,#'  ##            #'  '#       #'       #'  '#        
            ##       ##  #######   ##           ,######,      #####,   #    #        
            '#,     ,#'  ##    ##  '#,     ,#' ,#      #,     #,   #   #,  ,#        
             '#######'   ##     ##  '#######'  #'      '#     '####' # '####'        



                #########################################################
                #                        -***-                          #
                #          Department of theory and spectroscopy        #
                #                                                       #
                #                      Frank Neese                      #
                #                                                       #
                #     Directorship, Architecture, Infrastructure        #
                #                    SHARK, DRIVERS                     #
                #        Core code/Algorithms in most modules           #
                #                                                       #
                #        Max Planck Institute fuer Kohlenforschung      #
                #                Kaiser Wilhelm Platz 1                 #
                #                 D-45470 Muelheim/Ruhr                 #
                #                      Germany                          #
                #                                                       #
                #                  All rights reserved                  #
                #                        -***-                          #
                #########################################################


                         Program Version 6.0.1  -  RELEASE   -


 With contributions from (in alphabetic order):
[Max-Planck-Institut fuer Kohlenforschung]                               
  Daniel Aravena         : Magnetic Suceptibility                        
  Michael Atanasov       : Ab Initio Ligand Field Theory (pilot matlab implementation)
  Alexander A. Auer      : GIAO ZORA, VPT2 properties, NMR spectrum      
  Ute Becker             : All parallelization in ORCA, NUMFREQ, NUMCALC 
  Giovanni Bistoni       : ED, misc. LED, open-shell LED, HFLD           
  Martin Brehm           : Molecular dynamics                            
  Dmytro Bykov           : pre 5.0 version of the SCF Hessian            
  Marcos Casanova-Páez   : Triplet and SCS-CIS(D). UHF-(DLPNO)-IP/EA/STEOM-CCSD. UHF-CVS-IP/STEOM-CCSD   
  Vijay G. Chilkuri      : MRCI spin determinant printing, contributions to CSF-ICE 
  Pauline Colinet        : FMM embedding                                 
  Dipayan Datta          : RHF DLPNO-CCSD density                        
  Achintya Kumar Dutta   : EOM-CC, STEOM-CC                              
  Nicolas Foglia         : Exact transition moments, OPA infrastructure, MCD improvements    
  Dmitry Ganyushin       : Spin-Orbit,Spin-Spin,Magnetic field MRCI      
  Miquel Garcia-Rates    : C-PCM and meta-GGA Hessian, CCSD/C-PCM, Gaussian charge scheme 
  Tiago L. C. Gouveia    : GS-ROHF, GS-ROCIS                             
  Yang Guo               : DLPNO-NEVPT2, F12-NEVPT2, CIM, IAO-localization        
  Andreas Hansen         : Spin unrestricted coupled pair/coupled cluster methods 
  Ingolf Harden          : AUTO-CI MPn and infrastructure                
  Benjamin Helmich-Paris : MC-RPA, TRAH-(SCF,CASSCF), AVAS, COSX integrals, SCF dyn. polar. 
  Lee Huntington         : MR-EOM, pCC                                   
  Robert Izsak           : Overlap fitted RIJCOSX, COSX-SCS-MP3, EOM     
  Riya Kayal             : Wick's Theorem for AUTO-CI, AUTO-CI UHF-CCSDT 
  Emily Kempfer          : AUTO-CI, RHF CISDT and CCSDT                  
  Christian Kollmar      : KDIIS, OOCD, Brueckner-CCSD(T), CCSD density, CASPT2, CASPT2-K, improved NEVPT2 
  Axel Koslowski         : Symmetry handling                             
  Simone Kossmann        : meta-GGA functionals, TD-DFT gradient, OOMP2, (MP2 Hessian; deprecated post 5.0) 
  Lucas Lang             : DCDCAS                                        
  Marvin Lechner         : AUTO-CI (C++ implementation), FIC-MRCC        
  Spencer Leger          : CASSCF response                               
  Dagmar Lenk            : GEPOL surface, SMD, ORCA-2-JSON               
  Dimitrios Liakos       : Extrapolation schemes; Compound Job, initial MDCI parallelization 
  Dimitrios Manganas     : Further ROCIS development; embedding schemes. LFT, Crystal Embedding 
  Dimitrios Pantazis     : SARC Basis sets                               
  Anastasios Papadopoulos: AUTO-CI, single reference methods and gradients 
  Taras Petrenko         : pre 6.0 DFT Hessian and TD-DFT gradient, (ASA, deprecated), ECA, 1-Electron XAS/XES, NRVS 
  Peter Pinski           : DLPNO-MP2, DLPNO-MP2 Gradient                 
  Christoph Reimann      : Effective Core Potentials                     
  Marius Retegan         : Local ZFS, SOC                                
  Christoph Riplinger    : Optimizer, TS searches, QM/MM, DLPNO-CCSD(T), (RO)-DLPNO pert. Triples 
  Michael Roemelt        : Original ROCIS implementation                 
  Masaaki Saitow         : Open-shell DLPNO-CCSD energy and density      
  Barbara Sandhoefer     : DKH picture change effects                    
  Kantharuban Sivalingam : CASSCF convergence/infrastructure, NEVPT2 and variants, FIC-MRCI 
  Bernardo de Souza      : ESD, SOC TD-DFT                               
  Georgi L. Stoychev     : AutoAux, RI-MP2 NMR, DLPNO-MP2 response, X2C  
  Van Anh Tran           : RI-MP2 g-tensors                              
  Willem Van den Heuvel  : Paramagnetic NMR                              
  Zikuan Wang            : NOTCH, Electric field optimization            
  Frank Wennmohs         : Technical directorship and infrastructure     
  Hang Xu                : AUTO-CI-Response properties                   
                                                                         
[FACCTs GmbH]                                                            
  Markus Bursch, Miquel Garcia-Rates, Christoph Riplinger, Bernardo de Souza, Georgi L. Stoychev 
                                                                 
  APM, Basis sets (HGBS, AHGBS, def-TZVP (Ac-Lr), def2-XVPD (La-Lu)), CI-OPT, improved COSX, DLPNO-Multilevel,           
  DOCKER, DRACO, updates on ESD, GOAT, IRC, LR-CPCM, MBIS, meta-GGA TD-DFT gradient, ML-optimized integration grids, 
  MM, NACMEs, nearIR, NEB, NEB-TS, NL-DFT gradient (VV10), 2- and 3-layer-ONIOM, interface openCOSMO-RS, QMMM,   
  Crystal-QMMM, SF, symmetry and pop. for TD-DFT, r2SCAN hybrids, SOLVATOR                                   
                                                                         
[Other institutions]                                                     
  V. Asgeirsson          : NEB                                           
  Christoph Bannwarth    : sTDA-DFT, sTD-DFT, PBEh-3c, B97-3c, D3        
  Sebastian Ehlert       : rSCAN, r2SCAN, r2SCAN-3c, D4, dhf basis sets  
  Marvin Friede          : D4 for Fr, Ra, Ac-Lr                          
  Lars Goerigk           : TD-DFT with DH, B97 family of functionals     
  Stefan Grimme          : VdW corrections, initial TS optimization, DFT functionals, gCP, sTDA/sTD-DF 
  Waldemar Hujo          : DFT-NL                                        
  H. Jonsson             : NEB                                           
  Holger Kruse           : gCP                                           
  Marcel Mueller         : wB97X-3c, vDZP basis set                      
  Hagen Neugebauer       : wr2SCAN                                       
  Tobias Risthaus        : range-separated hybrid DFT                    
  Lukas Wittmann         : regularized MP2, r2SCAN double-hybrids, wr2SCAN        
                                                                         
We gratefully acknowledge several colleagues who have allowed us to      
interface, adapt or use parts of their codes:                            
  Ed Valeev, F. Pavosevic, A. Kumar             : LibInt (2-el integral package), F12 methods 
  Garnet Chan, S. Sharma, J. Yang, R. Olivares  : DMRG                   
  Ulf Ekstrom                                   : XCFun DFT Library      
  Mihaly Kallay                                 : mrcc  (arbitrary order and MRCC methods)
  Frank Weinhold                                : gennbo (NPA and NBO analysis)           
  Simon Mueller                                 : openCOSMO-RS                            
  Christopher J. Cramer and Donald G. Truhlar   : smd solvation model                     
  S Lehtola, MJT Oliveira, MAL Marques          : LibXC Library                           
  Liviu Ungur et al                             : ANISO software                          


 Your calculation uses the libint2 library for the computation of 2-el integrals
 For citations please refer to: http://libint.valeyev.net

 Your ORCA version has been built with support for libXC version: 6.2.2
 For citations please refer to: https://libxc.gitlab.io

 This ORCA versions uses:
   CBLAS   interface :  Fast vector & matrix operations
   LAPACKE interface :  Fast linear algebra routines
   SCALAPACK package :  Parallel linear algebra routines
   Shared memory     :  Shared parallel matrices
   BLAS/LAPACK       :  OpenBLAS 0.3.27  USE64BITINT DYNAMIC_ARCH NO_AFFINITY SkylakeX SINGLE_THREADED
        Core in use  :  SkylakeX
   Copyright (c) 2011-2014, The OpenBLAS Project


NOTE: MaxCore=8000 MB was set to SCF,MP2,MDCI,CIPSI,MRCI and CIS
      => If you want to overwrite this, your respective input block should be placed after the MaxCore statement
Your calculation utilizes the atom-pairwise dispersion correction
with the Becke-Johnson damping scheme (D3BJ)


Your calculation utilizes the SMD solvation module
Please cite in your paper:
A.V. Marenich, C.J. Cramer, D.G. Truhlar J. Phys. Chem. B, 113, (2009), 6378 

Warning: RI is on but no J-basis has been assigned. Assigning Def2/J (nothing to worry about!)
================================================================================

----- Orbital basis set information -----
Your calculation utilizes the basis: def2-TZVP
   F. Weigend and R. Ahlrichs, Phys. Chem. Chem. Phys. 7, 3297 (2005).

----- AuxJ basis set information -----
Your calculation utilizes the auxiliary basis: def2/J
   F. Weigend, Phys. Chem. Chem. Phys. 8, 1057 (2006).

================================================================================
                                        WARNINGS
                       Please study these warnings very carefully!
================================================================================



WARNING: SCAN, rSCAN, or r2SCAN functional requested.
  ===> : libXC variant has now been activated.



WARNING: your system is open-shell and RHF/RKS was chosen
  ===> : WILL SWITCH to UHF/UKS


================================================================================
                                       INPUT FILE
================================================================================
NAME = rf_mecn_freq_r2s_C7_P_B.inp
|  1> !r2scanh def2-TZVP freq d3 TightSCF SlowConv defgrid2
|  2>  
|  3> %pal
|  4> nprocs 20
|  5> end
|  6>  
|  7> %scf
|  8> MaxIter 1500
|  9> end
| 10>  
| 11> %maxcore 8000
| 12>  
| 13> !CPCM
| 14> %cpcm smd true
| 15> SMDsolvent "ACETONITRILE"
| 16> end
| 17>  
| 18> * xyz 0 2
| 19> 6        4.632147000      0.128043000     -0.490685000
| 20> 8        5.028526000     -0.786388000     -1.353611000
| 21> 8        5.055664000      1.238209000     -0.359985000
| 22> 6        3.469630000     -0.392824000      0.385001000
| 23> 6        2.106226000      0.081531000     -0.189422000
| 24> 6        0.874741000     -0.646800000      0.424835000
| 25> 6       -0.457325000      0.128207000      0.205265000
| 26> 6       -1.740313000     -0.738755000      0.373195000
| 27> 6       -2.979686000      0.088170000      0.476807000
| 28> 6       -4.018403000      0.236286000     -0.588249000
| 29> 9        3.465102000     -1.736094000      0.450688000
| 30> 9        3.617517000      0.099985000      1.623110000
| 31> 9        1.995441000      1.401501000      0.026771000
| 32> 9        2.113955000     -0.139174000     -1.515882000
| 33> 9        0.774153000     -1.861148000     -0.136078000
| 34> 9        1.067179000     -0.795484000      1.744045000
| 35> 9       -0.518152000      1.131398000      1.095503000
| 36> 9       -0.473987000      0.646609000     -1.033751000
| 37> 9       -1.595384000     -1.478622000      1.494075000
| 38> 9       -1.846058000     -1.560413000     -0.687578000
| 39> 9       -3.281261000      0.552886000      1.667097000
| 40> 9       -4.817771000     -0.838739000     -0.675349000
| 41> 9       -4.789686000      1.288451000     -0.324714000
| 42> 9       -3.451367000      0.405356000     -1.784356000
| 43> 1        5.742435000     -0.412636000     -1.903736000
| 44> *
| 45> 
| 46>                          ****END OF INPUT****
================================================================================

                       ****************************
                       * Single Point Calculation *
                       ****************************

---------------------------------
CARTESIAN COORDINATES (ANGSTROEM)
---------------------------------
  C      4.632147    0.128043   -0.490685
  O      5.028526   -0.786388   -1.353611
  O      5.055664    1.238209   -0.359985
  C      3.469630   -0.392824    0.385001
  C      2.106226    0.081531   -0.189422
  C      0.874741   -0.646800    0.424835
  C     -0.457325    0.128207    0.205265
  C     -1.740313   -0.738755    0.373195
  C     -2.979686    0.088170    0.476807
  C     -4.018403    0.236286   -0.588249
  F      3.465102   -1.736094    0.450688
  F      3.617517    0.099985    1.623110
  F      1.995441    1.401501    0.026771
  F      2.113955   -0.139174   -1.515882
  F      0.774153   -1.861148   -0.136078
  F      1.067179   -0.795484    1.744045
  F     -0.518152    1.131398    1.095503
  F     -0.473987    0.646609   -1.033751
  F     -1.595384   -1.478622    1.494075
  F     -1.846058   -1.560413   -0.687578
  F     -3.281261    0.552886    1.667097
  F     -4.817771   -0.838739   -0.675349
  F     -4.789686    1.288451   -0.324714
  F     -3.451367    0.405356   -1.784356
  H      5.742435   -0.412636   -1.903736

----------------------------
CARTESIAN COORDINATES (A.U.)
----------------------------
  NO LB      ZA    FRAG     MASS         X           Y           Z
   0 C     6.0000    0    12.011    8.753489    0.241966   -0.927260
   1 O     8.0000    0    15.999    9.502537   -1.486058   -2.557954
   2 O     8.0000    0    15.999    9.553820    2.339876   -0.680273
   3 C     6.0000    0    12.011    6.556650   -0.742330    0.727546
   4 C     6.0000    0    12.011    3.980190    0.154071   -0.357956
   5 C     6.0000    0    12.011    1.653021   -1.222275    0.802822
   6 C     6.0000    0    12.011   -0.864219    0.242276    0.387895
   7 C     6.0000    0    12.011   -3.288715   -1.396045    0.705236
   8 C     6.0000    0    12.011   -5.630791    0.166617    0.901035
   9 C     6.0000    0    12.011   -7.593681    0.446516   -1.111630
  10 F     9.0000    0    18.998    6.548094   -3.280742    0.851677
  11 F     9.0000    0    18.998    6.836116    0.188944    3.067233
  12 F     9.0000    0    18.998    3.770837    2.648453    0.050590
  13 F     9.0000    0    18.998    3.994796   -0.263001   -2.864602
  14 F     9.0000    0    18.998    1.462937   -3.517060   -0.257150
  15 F     9.0000    0    18.998    2.016676   -1.503247    3.295767
  16 F     9.0000    0    18.998   -0.979165    2.138032    2.070201
  17 F     9.0000    0    18.998   -0.895706    1.221914   -1.953506
  18 F     9.0000    0    18.998   -3.014839   -2.794191    2.823393
  19 F     9.0000    0    18.998   -3.488544   -2.948753   -1.299334
  20 F     9.0000    0    18.998   -6.200685    1.044803    3.150357
  21 F     9.0000    0    18.998   -9.104268   -1.584987   -1.276225
  22 F     9.0000    0    18.998   -9.051195    2.434820   -0.613621
  23 F     9.0000    0    18.998   -6.522138    0.766012   -3.371944
  24 H     1.0000    0     1.008   10.851629   -0.779769   -3.597540

--------------------------------
INTERNAL COORDINATES (ANGSTROEM)
--------------------------------
 C      0   0   0     0.000000000000     0.00000000     0.00000000
 O      1   0   0     1.318310148212     0.00000000     0.00000000
 O      1   2   0     1.195373450786   127.53441220     0.00000000
 C      1   2   3     1.545824756424   111.29672521   178.95185720
 C      4   1   2     1.553655340212   110.34228757   262.94058551
 C      5   4   1     1.557026978840   113.91579177   166.94407353
 C      6   5   4     1.556678085959   112.84690698   161.24166801
 C      7   6   5     1.557524254221   114.36504127   161.10620611
 C      8   7   6     1.493514591592   112.51053546   166.42537978
 C      9   8   7     1.495063757397   125.58939517   106.83217750
 F      4   1   2     1.344882737510   111.51514431    23.80865936
 F      4   1   2     1.340762906382   108.44010250   143.59276829
 F      5   4   1     1.342137671915   108.24935242   288.79672166
 F      5   4   1     1.344718024742   108.03206246    46.34938640
 F      6   5   4     1.341410602469   108.53033873   282.31239184
 F      6   5   4     1.341437415536   109.04762585    40.64578408
 F      7   6   5     1.342615284828   108.49604130   281.56940632
 F      7   6   5     1.343197269244   109.44319209    40.18543817
 F      8   7   6     1.350844020281   107.81571207    45.51077104
 F      8   7   6     1.345935819985   108.63567571   287.34708591
 F      9   8   7     1.312897073415   116.71108602   275.71328434
 F     10   9   8     1.342480673995   112.36946548    76.52469701
 F     10   9   8     1.330931759911   109.86971679   196.17077209
 F     10   9   8     1.334461106831   110.84601077   316.55237639
 H      2   1   3     0.975701867073   108.86598853   359.37963301

---------------------------
INTERNAL COORDINATES (A.U.)
---------------------------
 C      0   0   0     0.000000000000     0.00000000     0.00000000
 O      1   0   0     2.491245139689     0.00000000     0.00000000
 O      1   2   0     2.258928449747   127.53441220     0.00000000
 C      1   2   3     2.921185440677   111.29672521   178.95185720
 C      4   1   2     2.935983099505   110.34228757   262.94058551
 C      5   4   1     2.942354573134   113.91579177   166.94407353
 C      6   5   4     2.941695261139   112.84690698   161.24166801
 C      7   6   5     2.943294287418   114.36504127   161.10620611
 C      8   7   6     2.822333555124   112.51053546   166.42537978
 C      9   8   7     2.825261054231   125.58939517   106.83217750
 F      4   1   2     2.541460056133   111.51514431    23.80865936
 F      4   1   2     2.533674703583   108.44010250   143.59276829
 F      5   4   1     2.536272633938   108.24935242   288.79672166
 F      5   4   1     2.541148794110   108.03206246    46.34938640
 F      6   5   4     2.534898671805   108.53033873   282.31239184
 F      6   5   4     2.534949341158   109.04762585    40.64578408
 F      7   6   5     2.537175191542   108.49604130   281.56940632
 F      7   6   5     2.538274982702   109.44319209    40.18543817
 F      8   7   6     2.552725247977   107.81571207    45.51077104
 F      8   7   6     2.543450093606   108.63567571   287.34708591
 F      9   8   7     2.481015910781   116.71108602   275.71328434
 F     10   9   8     2.536920813932   112.36946548    76.52469701
 F     10   9   8     2.515096529169   109.86971679   196.17077209
 F     10   9   8     2.521766028280   110.84601077   316.55237639
 H      2   1   3     1.843809317124   108.86598853   359.37963301

---------------------
BASIS SET INFORMATION
---------------------
There are 4 groups of distinct atoms

 Group   1 Type C   : 11s6p2d1f contracted to 5s3p2d1f pattern {62111/411/11/1}
 Group   2 Type O   : 11s6p2d1f contracted to 5s3p2d1f pattern {62111/411/11/1}
 Group   3 Type F   : 11s6p2d1f contracted to 5s3p2d1f pattern {62111/411/11/1}
 Group   4 Type H   : 5s1p contracted to 3s1p pattern {311/1}

Atom   0C    basis set group =>   1
Atom   1O    basis set group =>   2
Atom   2O    basis set group =>   2
Atom   3C    basis set group =>   1
Atom   4C    basis set group =>   1
Atom   5C    basis set group =>   1
Atom   6C    basis set group =>   1
Atom   7C    basis set group =>   1
Atom   8C    basis set group =>   1
Atom   9C    basis set group =>   1
Atom  10F    basis set group =>   3
Atom  11F    basis set group =>   3
Atom  12F    basis set group =>   3
Atom  13F    basis set group =>   3
Atom  14F    basis set group =>   3
Atom  15F    basis set group =>   3
Atom  16F    basis set group =>   3
Atom  17F    basis set group =>   3
Atom  18F    basis set group =>   3
Atom  19F    basis set group =>   3
Atom  20F    basis set group =>   3
Atom  21F    basis set group =>   3
Atom  22F    basis set group =>   3
Atom  23F    basis set group =>   3
Atom  24H    basis set group =>   4
---------------------------------
AUXILIARY/J BASIS SET INFORMATION
---------------------------------
There are 4 groups of distinct atoms

 Group   1 Type C   : 12s5p4d2f1g contracted to 6s4p3d1f1g pattern {711111/2111/211/2/1}
 Group   2 Type O   : 12s5p4d2f1g contracted to 6s4p3d1f1g pattern {711111/2111/211/2/1}
 Group   3 Type F   : 12s5p4d2f1g contracted to 6s4p3d1f1g pattern {711111/2111/211/2/1}
 Group   4 Type H   : 5s2p1d contracted to 3s1p1d pattern {311/2/1}

Atom   0C    basis set group =>   1
Atom   1O    basis set group =>   2
Atom   2O    basis set group =>   2
Atom   3C    basis set group =>   1
Atom   4C    basis set group =>   1
Atom   5C    basis set group =>   1
Atom   6C    basis set group =>   1
Atom   7C    basis set group =>   1
Atom   8C    basis set group =>   1
Atom   9C    basis set group =>   1
Atom  10F    basis set group =>   3
Atom  11F    basis set group =>   3
Atom  12F    basis set group =>   3
Atom  13F    basis set group =>   3
Atom  14F    basis set group =>   3
Atom  15F    basis set group =>   3
Atom  16F    basis set group =>   3
Atom  17F    basis set group =>   3
Atom  18F    basis set group =>   3
Atom  19F    basis set group =>   3
Atom  20F    basis set group =>   3
Atom  21F    basis set group =>   3
Atom  22F    basis set group =>   3
Atom  23F    basis set group =>   3
Atom  24H    basis set group =>   4


           ************************************************************
           *        Program running with 20 parallel MPI-processes    *
           *              working on a common directory               *
           ************************************************************
------------------------------------------------------------------------------
                             ORCA STARTUP CALCULATIONS
                           -- RI-GTO INTEGRALS CHOSEN --
------------------------------------------------------------------------------
------------------------------------------------------------------------------
                   ___                                                        
                  /   \      - P O W E R E D   B Y -                         
                 /     \                                                     
                 |  |  |   _    _      __       _____    __    __             
                 |  |  |  | |  | |    /  \     |  _  \  |  |  /  |          
                  \  \/   | |  | |   /    \    | | | |  |  | /  /          
                 / \  \   | |__| |  /  /\  \   | |_| |  |  |/  /          
                |  |  |   |  __  | /  /__\  \  |    /   |      \           
                |  |  |   | |  | | |   __   |  |    \   |  |\   \          
                \     /   | |  | | |  |  |  |  | |\  \  |  | \   \       
                 \___/    |_|  |_| |__|  |__|  |_| \__\ |__|  \__/        
                                                                              
                      - O R C A' S   B I G   F R I E N D -                    
                                      &                                       
                       - I N T E G R A L  F E E D E R -                       
                                                                              
 v1 FN, 2020, v2 2021, v3 2022-2024                                           
------------------------------------------------------------------------------


----------------------
SHARK INTEGRAL PACKAGE
----------------------

Number of atoms                             ...     25
Number of basis functions                   ...    750
Number of shells                            ...    268
Maximum angular momentum                    ...      3
Integral batch strategy                     ... SHARK/LIBINT Hybrid
RI-J (if used) integral strategy            ... SPLIT-RIJ (Revised 2003 algorithm where possible)
Printlevel                                  ...      1
Contraction scheme used                     ... SEGMENTED contraction
Prescreening option                         ... SCHWARTZ
   Thresh                                   ... 2.500e-11
   Tcut                                     ... 2.500e-12
   Tpresel                                  ... 2.500e-12 
Coulomb Range Separation                    ... NOT USED
Exchange Range Separation                   ... NOT USED
Multipole approximations                    ... NOT USED
Finite Nucleus Model                        ... NOT USED
CABS basis                                  ... NOT available
Auxiliary Coulomb fitting basis             ... AVAILABLE
   # of basis functions in Aux-J            ...   1187
   # of shells in Aux-J                     ...    365
   Maximum angular momentum in Aux-J        ...      4
Auxiliary J/K fitting basis                 ... NOT available
Auxiliary Correlation fitting basis         ... NOT available
Auxiliary 'external' fitting basis          ... NOT available

Checking pre-screening integrals            ... done (  0.0 sec) Dimension = 268
Check shell pair data                       ... done (  0.0 sec)
Shell pair information
Shell pair cut-off parameter TPreSel        ...   2.5e-12
Total number of shell pairs                 ...     36046
Shell pairs after pre-screening             ...     22557
Total number of primitive shell pairs       ...    118872
Primitive shell pairs kept                  ...     47806
          la=0 lb=0:   4283 shell pairs
          la=1 lb=0:   6162 shell pairs
          la=1 lb=1:   2122 shell pairs
          la=2 lb=0:   3346 shell pairs
          la=2 lb=1:   2445 shell pairs
          la=2 lb=2:    691 shell pairs
          la=3 lb=0:   1547 shell pairs
          la=3 lb=1:   1176 shell pairs
          la=3 lb=2:    629 shell pairs
          la=3 lb=3:    156 shell pairs

Calculating one electron integrals          ... done (  0.0 sec)
Calculating RI/J V-Matrix + Cholesky decomp.... done (  0.1 sec)
Calculating Nuclear repulsion               ... done (  0.0 sec) ENN=   2672.026430863094 Eh

Diagonalization of the overlap matrix:
Smallest eigenvalue                        ... 5.948e-05
Time for diagonalization                   ...    0.152 sec
Threshold for overlap eigenvalues          ... 1.000e-07
Number of eigenvalues below threshold      ... 0
Time for construction of square roots      ...    0.054 sec
Total time needed                          ...    0.213 sec

-------------------
DFT GRID GENERATION
-------------------

General Integration Accuracy     IntAcc      ... 4.388
Radial Grid Type                 RadialGrid  ... OptM3 with GC (2021)
Angular Grid (max. ang.)         AngularGrid ... 4 (Lebedev-302)
Angular grid pruning method      GridPruning ... 4 (adaptive)
Weight generation scheme         WeightScheme... mBecke (2022)
Basis function cutoff            BFCut       ... 1.0000e-11
Integration weight cutoff        WCut        ... 1.0000e-14
Partially contracted basis set               ... off
Rotationally invariant grid construction     ... off
Angular grids for H and He will be reduced by one unit

Total number of grid points                  ...   148667
Total number of batches                      ...     2339
Average number of points per batch           ...       63
Average number of grid points per atom       ...     5947

--------------------
COSX GRID GENERATION
--------------------

GRIDX 1
-------
General Integration Accuracy     IntAcc      ... 3.816
Radial Grid Type                 RadialGrid  ... OptM3 with GC (2021)
Angular Grid (max. ang.)         AngularGrid ... 1 (Lebedev-50)
Angular grid pruning method      GridPruning ... 4 (adaptive)
Weight generation scheme         WeightScheme... mBecke (2022)
Basis function cutoff            BFCut       ... 1.0000e-11
Integration weight cutoff        WCut        ... 1.0000e-14
Partially contracted basis set               ... on
Rotationally invariant grid construction     ... off
Angular grids for H and He will be reduced by one unit

Total number of grid points                  ...    18691
Total number of batches                      ...      158
Average number of points per batch           ...      118
Average number of grid points per atom       ...      748
UseSFitting                                  ... on

GRIDX 2
-------
General Integration Accuracy     IntAcc      ... 4.020
Radial Grid Type                 RadialGrid  ... OptM3 with GC (2021)
Angular Grid (max. ang.)         AngularGrid ... 2 (Lebedev-110)
Angular grid pruning method      GridPruning ... 4 (adaptive)
Weight generation scheme         WeightScheme... mBecke (2022)
Basis function cutoff            BFCut       ... 1.0000e-11
Integration weight cutoff        WCut        ... 1.0000e-14
Partially contracted basis set               ... on
Rotationally invariant grid construction     ... off
Angular grids for H and He will be reduced by one unit

Total number of grid points                  ...    44054
Total number of batches                      ...      356
Average number of points per batch           ...      123
Average number of grid points per atom       ...     1762
UseSFitting                                  ... on

GRIDX 3
-------
General Integration Accuracy     IntAcc      ... 4.338
Radial Grid Type                 RadialGrid  ... OptM3 with GC (2021)
Angular Grid (max. ang.)         AngularGrid ... 3 (Lebedev-194)
Angular grid pruning method      GridPruning ... 4 (adaptive)
Weight generation scheme         WeightScheme... mBecke (2022)
Basis function cutoff            BFCut       ... 1.0000e-11
Integration weight cutoff        WCut        ... 1.0000e-14
Partially contracted basis set               ... on
Rotationally invariant grid construction     ... off
Angular grids for H and He will be reduced by one unit

Total number of grid points                  ...    97571
Total number of batches                      ...      774
Average number of points per batch           ...      126
Average number of grid points per atom       ...     3903
UseSFitting                                  ... on
Initializing property integral containers    ... done (  0.0 sec)

SHARK setup successfully completed in   4.0 seconds

Maximum memory used throughout the entire STARTUP-calculation: 57.6 MB


           ************************************************************
           *        Program running with 20 parallel MPI-processes    *
           *              working on a common directory               *
           ************************************************************
-------------------------------------------------------------------------------
                                 ORCA GUESS
                   Start orbitals & Density for SCF / CASSCF
-------------------------------------------------------------------------------

------------
SCF SETTINGS
------------
Hamiltonian:
 Density Functional     Method          .... DFT(GTOs)
  Functional kind                       .... Exchange
  Functional name                       .... Re-regularized SCAN exchange by Furness et al
  Functional family                     .... MGGA
  Functional refs                              
    [ 0] J. W. Furness, A. D. Kaplan, J. Ning, J. P. Perdew, and J. Sun.,  J. Phys. Chem. Lett. 11, 8208-8215 (2020), doi: 10.1021/acs.jpclett.0c02405
    [ 1] J. W. Furness, A. D. Kaplan, J. Ning, J. P. Perdew, and J. Sun.,  J. Phys. Chem. Lett. 11, 9248-9248 (2020), doi: 10.1021/acs.jpclett.0c03077
  Functional external parameters        .... 6
    Parameter  0 _c1        =  6.670000e-01 : c1 parameter        
    Parameter  1 _c2        =  8.000000e-01 : c2 parameter        
    Parameter  2 _d         =  1.240000e+00 : d parameter         
    Parameter  3 _k1        =  6.500000e-02 : k1 parameter        
    Parameter  4 _eta       =  1.000000e-03 : eta parameter       
    Parameter  5 _dp2       =  3.610000e-01 : dp2 parameter       
  Functional kind                       .... Correlation
  Functional name                       .... Re-regularized SCAN correlation by Furness et al
  Functional family                     .... MGGA
  Functional refs                              
    [ 0] J. W. Furness, A. D. Kaplan, J. Ning, J. P. Perdew, and J. Sun.,  J. Phys. Chem. Lett. 11, 8208-8215 (2020), doi: 10.1021/acs.jpclett.0c02405
    [ 1] J. W. Furness, A. D. Kaplan, J. Ning, J. P. Perdew, and J. Sun.,  J. Phys. Chem. Lett. 11, 9248-9248 (2020), doi: 10.1021/acs.jpclett.0c03077
  Functional external parameters        .... 1
    Parameter  0 _eta       =  1.000000e-03 : Regularization parameter
 Gradients option       PostSCFGGA      .... off
 Hybrid DFT is turned on
   Fraction HF Exchange ScalHFX         ....  0.100000
   Scaling of DF-GGA-X  ScalDFX         ....  0.900000
   Scaling of DF-GGA-C  ScalDFC         ....  1.000000
   Scaling of DF-LDA-C  ScalLDAC        ....  1.000000
   Perturbative correction              ....  0.000000
   NL short-range parameter             .... 11.900000
 RI-approximation to the Coulomb term is turned on
   Number of AuxJ basis functions       .... 1187
   RIJ-COSX (HFX calculated with COS-X)).... on


General Settings:
 Integral files         IntName         .... rf_mecn_freq_r2s_C7_P_B
 Hartree-Fock type      HFTyp           .... UHF
 Total Charge           Charge          ....    0
 Multiplicity           Mult            ....    2
 Number of Electrons    NEL             ....  191
 Basis Dimension        Dim             ....  750
 Nuclear Repulsion      ENuc            ....   2672.0264308631 Eh

Convergence Acceleration:
 AO-DIIS                CNVDIIS         .... on
   Start iteration      DIISMaxIt       ....     0
   Startup error        DIISStart       ....  0.200000
   # of expansion vecs  DIISMaxEq       ....     5
   Bias factor          DIISBfac        ....   1.050
   Max. coefficient     DIISMaxC        ....  10.000
 MO-DIIS                CNVKDIIS        .... off
 Trust-Rad. Augm. Hess. CNVTRAH         .... auto
   Auto Start mean grad. ratio tolernc. ....  1.125000
   Auto Start start iteration           ....    50
   Auto Start num. interpolation iter.  ....    10
   Max. Number of Micro iterations      ....    24
   Max. Number of Macro iterations      .... Maxiter - #DIIS iter
   Number of Davidson start vectors     ....     2
   Converg. threshold    (grad. norm)   ....   1.000e-05
   Grad. Scal. Fac. for Micro threshold ....   0.100
   Minimum threshold for Micro iter.    ....   1.000e-02
   NR start threshold (gradient norm)   ....   1.000e-04
   Initial trust radius                 ....   0.400
   Minimum AH scaling param. (alpha)    ....   1.000
   Maximum AH scaling param. (alpha)    .... 1000.000
   Quad. conv. algorithm                .... NR
   White noise on init. David. guess    .... on
   Maximum white noise                  ....   0.010
   Pseudo random numbers                .... off
   Inactive MOs                         .... canonical
   Orbital update algorithm             .... Taylor
   Preconditioner                       .... Diag
   Full preconditioner red. dimension   ....   250
 SOSCF                  CNVSOSCF        .... on
   Start iteration      SOSCFMaxIt      ....   150
   Startup grad/error   SOSCFStart      ....  0.001000
   Hessian update       SOSCFHessUp     .... L-BFGS
 Level Shifting         CNVShift        .... on
   Level shift para.    LevelShift      ....    0.2500
   Turn off err/grad.   ShiftErr        ....    0.0000
 Zerner damping         CNVZerner       .... off
 Static damping         CNVDamp         .... on
   Fraction old density DampFac         ....    0.8500
   Max. Damping (<1)    DampMax         ....    0.9800
   Min. Damping (>=0)   DampMin         ....    0.0000
   Turn off err/grad.   DampErr         ....    0.0300

SCF Procedure:
 Maximum # iterations   MaxIter         ....  1500
 SCF integral mode      SCFMode         .... Direct
   Integral package                     .... SHARK and LIBINT hybrid scheme
 Reset frequency        DirectResetFreq ....    20
 Integral Threshold     Thresh          ....  2.500e-11 Eh
 Primitive CutOff       TCut            ....  2.500e-12 Eh

Convergence Tolerance:
 Convergence Check Mode ConvCheckMode   .... Total+1el-Energy
 Convergence forced     ConvForced      .... 0
 Energy Change          TolE            ....  1.000e-08 Eh
 1-El. energy change                    ....  1.000e-05 Eh
 Orbital Gradient       TolG            ....  1.000e-05
 Orbital Rotation angle TolX            ....  1.000e-05
 DIIS Error             TolErr          ....  5.000e-07

------------------------------
INITIAL GUESS: MODEL POTENTIAL
------------------------------
Loading Hartree-Fock densities                     ... done
Calculating cut-offs                               ... done
Initializing the effective Hamiltonian             ... done
Setting up the integral package (SHARK)            ... done
Starting the Coulomb interaction                   ... done (   0.2 sec)
Making the grid                                    ... done (   0.4 sec)
Mapping shells                                     ... done
Starting the XC term evaluation                    ... done (   0.2 sec)
  promolecular density results
     # of electrons  =    190.999424669
     EX              =   -197.617263274
     EC              =     -6.718909747
     EX+EC           =   -204.336173021
Transforming the Hamiltonian                       ... done (   0.1 sec)
Diagonalizing the Hamiltonian                      ... done (   0.2 sec)
Back transforming the eigenvectors                 ... done (   0.0 sec)
Now organizing SCF variables                       ... done
                      ------------------
                      INITIAL GUESS DONE (   1.3 sec)
                      ------------------
             **** ENERGY FILE WAS UPDATED (rf_mecn_freq_r2s_C7_P_B.en.tmp) ****
Finished Guess after   2.1 sec
Maximum memory used throughout the entire GUESS-calculation: 46.8 MB


           ************************************************************
           *        Program running with 20 parallel MPI-processes    *
           *              working on a common directory               *
           ************************************************************

-------------------------------------------------------------------------------------------
                                      ORCA LEAN-SCF
                              memory conserving SCF solver
-------------------------------------------------------------------------------------------

--------------------
CPCM SOLVATION MODEL
--------------------
CPCM parameters:
  Epsilon                                         ...      35.6880
  Refrac                                          ...       1.3442
  Rsolv                                           ...       1.3000
  Surface type                                    ... GAUSSIAN VDW
  Discretization scheme                           ... Constant charge density
    Threshold for H atoms                         ...       5.0000 (charges/Ang^2)
    Threshold for non-H atoms                     ...       5.0000 (charges/Ang^2)
  Epsilon function type                           ...         CPCM
Solvent:                                          ... ACETONITRILE
SMD-CDS solvent descriptors:
  Soln                                            ...       1.3442
  Soln25                                          ...       1.3416
  Sola                                            ...       0.0700
  Solb                                            ...       0.3200
  Solg                                            ...      41.2500
  Solc                                            ...       0.0000
  Solh                                            ...       0.0000
Radii:
  Scheme                                          ... Element-dependent radii
  Radius for C  used is    3.4960 Bohr (=   1.8500 Ang.)
  Radius for O  used is    4.0969 Bohr (=   2.1680 Ang.)
  Radius for F  used is    3.2692 Bohr (=   1.7300 Ang.)
  Radius for H  used is    2.2677 Bohr (=   1.2000 Ang.)
Calculating surface                               ...        done! (  0.0s)
Cavity surface points                             ...         2151
Cavity Volume                                     ...    2094.0356
Cavity Surface-area                               ...    1094.3583
Calculating surface distance matrix               ...        done! (  0.0s)
Performing Cholesky decomposition & store         ...        done! (  0.1s)
Overall time for CPCM initialization              ...                 0.1s

----------------------------------------D-I-I-S--------------------------------------------
Iteration    Energy (Eh)           Delta-E    RMSDP     MaxDP     DIISErr   Damp  Time(sec)
-------------------------------------------------------------------------------------------
               ***  Starting incremental Fock matrix formation  ***
    1    -1853.2039149375709712     0.00e+00  1.78e-04  1.34e-02  1.37e-01  0.850   7.9
Warning: op=1 Small HOMO/LUMO gap (   0.062) - skipping pre-diagonalization
         Will do a full diagonalization
    2    -1853.3119006901947614    -1.08e-01  1.68e-04  1.18e-02  9.30e-02  0.850   6.0
                               ***Turning on AO-DIIS***
    3    -1853.3712846979292408    -5.94e-02  8.23e-05  4.22e-03  5.42e-02  0.850   5.0
    4    -1853.4075870097008192    -3.63e-02  5.73e-05  4.15e-03  4.17e-02  0.850   4.7
    5    -1853.4336725338612268    -2.61e-02  4.88e-05  4.53e-03  3.58e-02  0.850   4.6
    6    -1853.4545137346044612    -2.08e-02  4.42e-05  4.41e-03  3.13e-02  0.850   4.5
    7    -1853.4719700926675614    -1.75e-02  4.06e-05  4.27e-03  2.67e-02  0.850   4.4
    8    -1853.4867713177804944    -1.48e-02  2.36e-04  2.48e-02  2.19e-02  0.000   4.4
    9    -1853.5638053317484264    -7.70e-02  1.78e-05  1.57e-03  3.40e-03  0.000   5.0
   10    -1853.5639733376151526    -1.68e-04  8.23e-06  1.07e-03  1.72e-03  0.000   4.4
                              *** Initializing SOSCF ***
---------------------------------------S-O-S-C-F--------------------------------------
Iteration    Energy (Eh)           Delta-E    RMSDP     MaxDP     MaxGrad    Time(sec)
--------------------------------------------------------------------------------------
   11    -1853.5640048368791213    -3.15e-05  3.89e-06  4.24e-04  5.86e-04     4.4
               *** Restarting incremental Fock matrix formation ***
   12    -1853.5640113128843041    -6.48e-06  2.96e-06  2.25e-04  1.99e-04     7.6
   13    -1853.5640113844933694    -7.16e-08  1.85e-06  1.55e-04  4.54e-04     4.9
   14    -1853.5640129559419620    -1.57e-06  1.09e-06  1.25e-04  5.06e-05     4.5
   15    -1853.5640129697335396    -1.38e-08  4.19e-07  4.33e-05  1.84e-05     4.5
   16    -1853.5640130539636630    -8.42e-08  2.09e-07  2.81e-05  4.61e-06     4.0
   17    -1853.5640130284850784     2.55e-08  1.34e-07  2.13e-05  5.53e-06     3.8
   18    -1853.5640130584074541    -2.99e-08  1.69e-07  2.58e-05  6.72e-07     3.5
                  *** Gradient check signals convergence ***

               *****************************************************
               *                     SUCCESS                       *
               *           SCF CONVERGED AFTER  18 CYCLES          *
               *****************************************************

Recomputing exchange energy using gridx3       ... done (    8.984 sec)
Old exchange energy                            :    -19.930824946 Eh
New exchange energy                            :    -19.930833196 Eh
Exchange energy change after final integration :     -0.000008250 Eh
Total energy after final integration           :  -1853.564021308 Eh

SMD CDS free energy correction energy :                 3.22936     Kcal/mol
Total Energy after SMD CDS correction =             -1853.558874998 Eh
             **** ENERGY FILE WAS UPDATED (rf_mecn_freq_r2s_C7_P_B.en.tmp) ****

----------------
TOTAL SCF ENERGY
----------------

Total Energy       :      -1853.55887499833079 Eh          -50437.90120 eV

Components:
Nuclear Repulsion  :       2672.02643086309354 Eh           72709.53567 eV
Electronic Energy  :      -4525.57705161516424 Eh         -123147.21226 eV
One Electron Energy:      -7894.93108509191552 Eh         -214831.99667 eV
Two Electron Energy:       3369.35403347675128 Eh           91684.78442 eV
CPCM Dielectric    :         -0.01339230633674 Eh              -0.36442 eV
SMD CDS (Gcds)     :          0.00514630969416 Eh               0.14004 eV

Virial components:
Potential Energy   :      -3700.96780224603344 Eh         -100708.45382 eV
Kinetic Energy     :       1847.40892724770265 Eh           50270.55262 eV
Virial Ratio       :          2.00332895855375

DFT components:
N(Alpha)           :       95.999972099872 electrons
N(Beta)            :       94.999968368269 electrons
N(Total)           :      190.999940468141 electrons
E(X)               :     -180.322685280410 Eh       
E(C)               :       -6.647366524321 Eh       
E(XC)              :     -186.970051804731 Eh       

CPCM Solvation Model Properties:
Surface-charge          :         -0.00834026388578
Corrected charge        :          0.00000000000000
Outlying charge corr.   :          0.00000383495434 Eh               0.00010 eV
Free-energy (cav+disp)  :          0.00514630969416 Eh               0.14004 eV

---------------
SCF CONVERGENCE
---------------

  Last Energy change         ...    2.9922e-08  Tolerance :   1.0000e-08
  Last MAX-Density change    ...    2.5789e-05  Tolerance :   1.0000e-07
  Last RMS-Density change    ...    1.6924e-07  Tolerance :   5.0000e-09
  Last DIIS Error            ...    5.8613e-04  Tolerance :   5.0000e-07
  Last Orbital Gradient      ...    6.7187e-07  Tolerance :   1.0000e-05
  Last Orbital Rotation      ...    2.2311e-06  Tolerance :   1.0000e-05


----------------------
UHF SPIN CONTAMINATION
----------------------

Warning: in a DFT calculation there is little theoretical justification to 
         calculate <S**2> as in Hartree-Fock theory. We will do it anyways
         but you should keep in mind that the values have only limited relevance

Expectation value of <S**2>     :     0.756888
Ideal value S*(S+1) for S=0.5   :     0.750000
Deviation                       :     0.006888

----------------
ORBITAL ENERGIES
----------------
                 SPIN UP ORBITALS
  NO   OCC          E(Eh)            E(eV) 
   0   1.0000     -24.745520      -673.3598 
   1   1.0000     -24.732900      -673.0164 
   2   1.0000     -24.732196      -672.9973 
   3   1.0000     -24.732159      -672.9963 
   4   1.0000     -24.732010      -672.9922 
   5   1.0000     -24.731873      -672.9885 
   6   1.0000     -24.731755      -672.9853 
   7   1.0000     -24.728993      -672.9101 
   8   1.0000     -24.727114      -672.8590 
   9   1.0000     -24.726037      -672.8297 
  10   1.0000     -24.725837      -672.8242 
  11   1.0000     -24.723472      -672.7599 
  12   1.0000     -24.721710      -672.7119 
  13   1.0000     -24.721097      -672.6953 
  14   1.0000     -19.197142      -522.3808 
  15   1.0000     -19.141033      -520.8540 
  16   1.0000     -10.438933      -284.0578 
  17   1.0000     -10.387882      -282.6686 
  18   1.0000     -10.387305      -282.6529 
  19   1.0000     -10.384703      -282.5821 
  20   1.0000     -10.384532      -282.5775 
  21   1.0000     -10.375980      -282.3448 
  22   1.0000     -10.326435      -280.9966 
  23   1.0000     -10.310346      -280.5588 
  24   1.0000      -1.350352       -36.7449 
  25   1.0000      -1.342068       -36.5195 
  26   1.0000      -1.327464       -36.1221 
  27   1.0000      -1.315998       -35.8101 
  28   1.0000      -1.313408       -35.7397 
  29   1.0000      -1.309084       -35.6220 
  30   1.0000      -1.302291       -35.4371 
  31   1.0000      -1.272016       -34.6133 
  32   1.0000      -1.264409       -34.4063 
  33   1.0000      -1.261059       -34.3152 
  34   1.0000      -1.257791       -34.2262 
  35   1.0000      -1.255408       -34.1614 
  36   1.0000      -1.254995       -34.1501 
  37   1.0000      -1.251169       -34.0460 
  38   1.0000      -1.152883       -31.3715 
  39   1.0000      -1.065803       -29.0020 
  40   1.0000      -0.856277       -23.3005 
  41   1.0000      -0.839682       -22.8489 
  42   1.0000      -0.810018       -22.0417 
  43   1.0000      -0.772948       -21.0330 
  44   1.0000      -0.733028       -19.9467 
  45   1.0000      -0.692194       -18.8355 
  46   1.0000      -0.671621       -18.2757 
  47   1.0000      -0.661617       -18.0035 
  48   1.0000      -0.638192       -17.3661 
  49   1.0000      -0.634488       -17.2653 
  50   1.0000      -0.628795       -17.1104 
  51   1.0000      -0.622037       -16.9265 
  52   1.0000      -0.617769       -16.8104 
  53   1.0000      -0.614302       -16.7160 
  54   1.0000      -0.605742       -16.4831 
  55   1.0000      -0.603348       -16.4179 
  56   1.0000      -0.599851       -16.3228 
  57   1.0000      -0.588094       -16.0028 
  58   1.0000      -0.584024       -15.8921 
  59   1.0000      -0.577143       -15.7048 
  60   1.0000      -0.571517       -15.5518 
  61   1.0000      -0.563219       -15.3260 
  62   1.0000      -0.525685       -14.3046 
  63   1.0000      -0.512596       -13.9484 
  64   1.0000      -0.500197       -13.6110 
  65   1.0000      -0.499806       -13.6004 
  66   1.0000      -0.492742       -13.4082 
  67   1.0000      -0.490521       -13.3478 
  68   1.0000      -0.484904       -13.1949 
  69   1.0000      -0.482155       -13.1201 
  70   1.0000      -0.478272       -13.0144 
  71   1.0000      -0.476865       -12.9762 
  72   1.0000      -0.474360       -12.9080 
  73   1.0000      -0.471838       -12.8394 
  74   1.0000      -0.465558       -12.6685 
  75   1.0000      -0.462849       -12.5947 
  76   1.0000      -0.459420       -12.5015 
  77   1.0000      -0.455272       -12.3886 
  78   1.0000      -0.452538       -12.3142 
  79   1.0000      -0.447847       -12.1865 
  80   1.0000      -0.442614       -12.0441 
  81   1.0000      -0.441566       -12.0156 
  82   1.0000      -0.439617       -11.9626 
  83   1.0000      -0.435962       -11.8631 
  84   1.0000      -0.432272       -11.7627 
  85   1.0000      -0.431793       -11.7497 
  86   1.0000      -0.428709       -11.6658 
  87   1.0000      -0.423577       -11.5261 
  88   1.0000      -0.421321       -11.4647 
  89   1.0000      -0.415629       -11.3098 
  90   1.0000      -0.402437       -10.9509 
  91   1.0000      -0.377292       -10.2666 
  92   1.0000      -0.351404        -9.5622 
  93   1.0000      -0.341803        -9.3009 
  94   1.0000      -0.303790        -8.2666 
  95   1.0000      -0.269132        -7.3234 
  96   0.0000      -0.062038        -1.6881 
  97   0.0000      -0.005419        -0.1475 
  98   0.0000       0.006201         0.1687 
  99   0.0000       0.028827         0.7844 
 100   0.0000       0.051657         1.4057 
 101   0.0000       0.059593         1.6216 
 102   0.0000       0.083528         2.2729 
 103   0.0000       0.097955         2.6655 
 104   0.0000       0.115598         3.1456 
 105   0.0000       0.127737         3.4759 
 106   0.0000       0.128906         3.5077 

                 SPIN DOWN ORBITALS
  NO   OCC          E(Eh)            E(eV) 
   0   1.0000     -24.740201      -673.2151 
   1   1.0000     -24.732878      -673.0158 
   2   1.0000     -24.732199      -672.9974 
   3   1.0000     -24.732164      -672.9964 
   4   1.0000     -24.731999      -672.9919 
   5   1.0000     -24.731830      -672.9873 
   6   1.0000     -24.731751      -672.9852 
   7   1.0000     -24.728617      -672.8999 
   8   1.0000     -24.726152      -672.8328 
   9   1.0000     -24.725746      -672.8218 
  10   1.0000     -24.725248      -672.8082 
  11   1.0000     -24.723473      -672.7599 
  12   1.0000     -24.721708      -672.7119 
  13   1.0000     -24.719431      -672.6499 
  14   1.0000     -19.197140      -522.3807 
  15   1.0000     -19.141028      -520.8538 
  16   1.0000     -10.439803      -284.0815 
  17   1.0000     -10.388391      -282.6825 
  18   1.0000     -10.387774      -282.6657 
  19   1.0000     -10.384485      -282.5762 
  20   1.0000     -10.384027      -282.5637 
  21   1.0000     -10.375963      -282.3443 
  22   1.0000     -10.326431      -280.9965 
  23   1.0000     -10.293280      -280.0944 
  24   1.0000      -1.348770       -36.7019 
  25   1.0000      -1.341863       -36.5140 
  26   1.0000      -1.326909       -36.1070 
  27   1.0000      -1.315658       -35.8009 
  28   1.0000      -1.312223       -35.7074 
  29   1.0000      -1.308952       -35.6184 
  30   1.0000      -1.294117       -35.2147 
  31   1.0000      -1.271848       -34.6087 
  32   1.0000      -1.264062       -34.3969 
  33   1.0000      -1.260159       -34.2907 
  34   1.0000      -1.257589       -34.2207 
  35   1.0000      -1.253956       -34.1219 
  36   1.0000      -1.252840       -34.0915 
  37   1.0000      -1.251165       -34.0459 
  38   1.0000      -1.152877       -31.3714 
  39   1.0000      -1.065796       -29.0018 
  40   1.0000      -0.848074       -23.0773 
  41   1.0000      -0.830752       -22.6059 
  42   1.0000      -0.802933       -21.8489 
  43   1.0000      -0.769520       -20.9397 
  44   1.0000      -0.731363       -19.9014 
  45   1.0000      -0.688566       -18.7368 
  46   1.0000      -0.667103       -18.1528 
  47   1.0000      -0.661300       -17.9949 
  48   1.0000      -0.636565       -17.3218 
  49   1.0000      -0.632751       -17.2180 
  50   1.0000      -0.627317       -17.0702 
  51   1.0000      -0.620651       -16.8888 
  52   1.0000      -0.616723       -16.7819 
  53   1.0000      -0.608761       -16.5652 
  54   1.0000      -0.605269       -16.4702 
  55   1.0000      -0.601978       -16.3807 
  56   1.0000      -0.599171       -16.3043 
  57   1.0000      -0.587344       -15.9824 
  58   1.0000      -0.582884       -15.8611 
  59   1.0000      -0.575823       -15.6689 
  60   1.0000      -0.570545       -15.5253 
  61   1.0000      -0.562899       -15.3173 
  62   1.0000      -0.512589       -13.9482 
  63   1.0000      -0.500204       -13.6112 
  64   1.0000      -0.500074       -13.6077 
  65   1.0000      -0.494265       -13.4496 
  66   1.0000      -0.491003       -13.3609 
  67   1.0000      -0.489240       -13.3129 
  68   1.0000      -0.482790       -13.1374 
  69   1.0000      -0.480263       -13.0686 
  70   1.0000      -0.477560       -12.9951 
  71   1.0000      -0.475986       -12.9522 
  72   1.0000      -0.471799       -12.8383 
  73   1.0000      -0.470926       -12.8145 
  74   1.0000      -0.464185       -12.6311 
  75   1.0000      -0.462402       -12.5826 
  76   1.0000      -0.458438       -12.4747 
  77   1.0000      -0.454003       -12.3540 
  78   1.0000      -0.449315       -12.2265 
  79   1.0000      -0.446975       -12.1628 
  80   1.0000      -0.441462       -12.0128 
  81   1.0000      -0.440106       -11.9759 
  82   1.0000      -0.438591       -11.9347 
  83   1.0000      -0.435534       -11.8515 
  84   1.0000      -0.431573       -11.7437 
  85   1.0000      -0.431230       -11.7344 
  86   1.0000      -0.428452       -11.6588 
  87   1.0000      -0.422784       -11.5045 
  88   1.0000      -0.420055       -11.4303 
  89   1.0000      -0.413776       -11.2594 
  90   1.0000      -0.399342       -10.8667 
  91   1.0000      -0.374840       -10.1999 
  92   1.0000      -0.351337        -9.5604 
  93   1.0000      -0.339583        -9.2405 
  94   1.0000      -0.303484        -8.2582 
  95   0.0000      -0.125043        -3.4026 
  96   0.0000      -0.061120        -1.6632 
  97   0.0000      -0.003583        -0.0975 
  98   0.0000       0.011987         0.3262 
  99   0.0000       0.031472         0.8564 
 100   0.0000       0.055395         1.5074 
 101   0.0000       0.065589         1.7848 
 102   0.0000       0.088338         2.4038 
 103   0.0000       0.100882         2.7451 
 104   0.0000       0.117112         3.1868 
 105   0.0000       0.130048         3.5388 
*Only the first 10 virtual orbitals were printed.

                    ********************************
                    * MULLIKEN POPULATION ANALYSIS *
                    ********************************

--------------------------------------------
MULLIKEN ATOMIC CHARGES AND SPIN POPULATIONS
--------------------------------------------
   0 C :    0.281688    0.000202
   1 O :   -0.365004    0.000016
   2 O :   -0.326815    0.000173
   3 C :    0.412566    0.000462
   4 C :    0.287935    0.002058
   5 C :    0.317719    0.004901
   6 C :    0.306267    0.030354
   7 C :    0.388533   -0.019951
   8 C :    0.139110    0.844927
   9 C :    0.489899   -0.022835
  10 F :   -0.173695    0.000001
  11 F :   -0.170174    0.000048
  12 F :   -0.166076    0.000030
  13 F :   -0.168761    0.000090
  14 F :   -0.164415   -0.000105
  15 F :   -0.163953    0.000219
  16 F :   -0.167961    0.000483
  17 F :   -0.169683    0.000262
  18 F :   -0.169822    0.016750
  19 F :   -0.168726    0.005981
  20 F :   -0.142088    0.094178
  21 F :   -0.169160    0.028102
  22 F :   -0.161995    0.004702
  23 F :   -0.164880    0.008925
  24 H :    0.389489    0.000028
Sum of atomic charges         :    0.0000000
Sum of atomic spin populations:    1.0000000

-----------------------------------------------------
MULLIKEN REDUCED ORBITAL CHARGES AND SPIN POPULATIONS
-----------------------------------------------------
CHARGE
  0 C s       :     3.066864  s :     3.066864
      pz      :     0.780643  p :     2.362992
      px      :     0.837769
      py      :     0.744580
      dz2     :     0.037529  d :     0.263750
      dxz     :     0.025561
      dyz     :     0.075088
      dx2y2   :     0.059342
      dxy     :     0.066230
      f0      :     0.003298  f :     0.024707
      f+1     :     0.001966
      f-1     :     0.003222
      f+2     :     0.004203
      f-2     :     0.003491
      f+3     :     0.003544
      f-3     :     0.004983

  1 O s       :     3.786740  s :     3.786740
      pz      :     1.450456  p :     4.543847
      px      :     1.523443
      py      :     1.569948
      dz2     :     0.003732  d :     0.032578
      dxz     :     0.004919
      dyz     :     0.009989
      dx2y2   :     0.006105
      dxy     :     0.007833
      f0      :     0.000275  f :     0.001838
      f+1     :     0.000231
      f-1     :     0.000262
      f+2     :     0.000370
      f-2     :     0.000476
      f+3     :     0.000057
      f-3     :     0.000168

  2 O s       :     3.827776  s :     3.827776
      pz      :     1.587921  p :     4.464681
      px      :     1.534881
      py      :     1.341880
      dz2     :     0.003124  d :     0.032274
      dxz     :     0.001585
      dyz     :     0.008859
      dx2y2   :     0.009349
      dxy     :     0.009357
      f0      :     0.000258  f :     0.002084
      f+1     :     0.000071
      f-1     :     0.000262
      f+2     :     0.000249
      f-2     :     0.000205
      f+3     :     0.000446
      f-3     :     0.000592

  3 C s       :     3.041406  s :     3.041406
      pz      :     0.682005  p :     2.232686
      px      :     0.944158
      py      :     0.606522
      dz2     :     0.048522  d :     0.285615
      dxz     :     0.054233
      dyz     :     0.076443
      dx2y2   :     0.044910
      dxy     :     0.061506
      f0      :     0.006134  f :     0.027727
      f+1     :     0.004023
      f-1     :     0.003652
      f+2     :     0.004587
      f-2     :     0.002107
      f+3     :     0.005134
      f-3     :     0.002091

  4 C s       :     3.151878  s :     3.151878
      pz      :     0.637135  p :     2.240585
      px      :     0.953743
      py      :     0.649706
      dz2     :     0.049272  d :     0.291533
      dxz     :     0.061125
      dyz     :     0.079986
      dx2y2   :     0.041520
      dxy     :     0.059630
      f0      :     0.005035  f :     0.028069
      f+1     :     0.005163
      f-1     :     0.005945
      f+2     :     0.003134
      f-2     :     0.001472
      f+3     :     0.004947
      f-3     :     0.002372

  5 C s       :     3.135011  s :     3.135011
      pz      :     0.613737  p :     2.226634
      px      :     0.927691
      py      :     0.685207
      dz2     :     0.063718  d :     0.292601
      dxz     :     0.059747
      dyz     :     0.073856
      dx2y2   :     0.035492
      dxy     :     0.059789
      f0      :     0.003751  f :     0.028034
      f+1     :     0.004710
      f-1     :     0.008214
      f+2     :     0.002309
      f-2     :     0.002717
      f+3     :     0.003832
      f-3     :     0.002502

  6 C s       :     3.136352  s :     3.136352
      pz      :     0.578308  p :     2.236203
      px      :     0.948173
      py      :     0.709721
      dz2     :     0.078006  d :     0.293129
      dxz     :     0.063238
      dyz     :     0.059767
      dx2y2   :     0.033664
      dxy     :     0.058454
      f0      :     0.005075  f :     0.028049
      f+1     :     0.004378
      f-1     :     0.005979
      f+2     :     0.003265
      f-2     :     0.004637
      f+3     :     0.002622
      f-3     :     0.002093

  7 C s       :     3.046579  s :     3.046579
      pz      :     0.581060  p :     2.233386
      px      :     0.930664
      py      :     0.721661
      dz2     :     0.083570  d :     0.303776
      dxz     :     0.064808
      dyz     :     0.054535
      dx2y2   :     0.045616
      dxy     :     0.055247
      f0      :     0.006051  f :     0.027726
      f+1     :     0.003548
      f-1     :     0.004455
      f+2     :     0.004089
      f-2     :     0.005143
      f+3     :     0.002505
      f-3     :     0.001934

  8 C s       :     3.204579  s :     3.204579
      pz      :     0.662566  p :     2.487234
      px      :     0.894798
      py      :     0.929870
      dz2     :     0.037822  d :     0.151025
      dxz     :     0.048558
      dyz     :     0.028712
      dx2y2   :     0.015561
      dxy     :     0.020371
      f0      :     0.004428  f :     0.018052
      f+1     :     0.003331
      f-1     :     0.002584
      f+2     :     0.002434
      f-2     :     0.002469
      f+3     :     0.001414
      f-3     :     0.001392

  9 C s       :     2.999897  s :     2.999897
      pz      :     0.744967  p :     2.113871
      px      :     0.733446
      py      :     0.635458
      dz2     :     0.058799  d :     0.356274
      dxz     :     0.066411
      dyz     :     0.082931
      dx2y2   :     0.081601
      dxy     :     0.066532
      f0      :     0.007368  f :     0.040059
      f+1     :     0.003706
      f-1     :     0.005360
      f+2     :     0.002900
      f-2     :     0.007499
      f+3     :     0.004361
      f-3     :     0.008867

 10 F s       :     3.928357  s :     3.928357
      pz      :     1.887547  p :     5.227687
      px      :     1.901226
      py      :     1.438914
      dz2     :     0.002322  d :     0.016939
      dxz     :     0.000175
      dyz     :     0.003549
      dx2y2   :     0.006759
      dxy     :     0.004133
      f0      :     0.000059  f :     0.000713
      f+1     :     0.000012
      f-1     :     0.000141
      f+2     :     0.000101
      f-2     :     0.000007
      f+3     :     0.000161
      f-3     :     0.000231

 11 F s       :     3.926384  s :     3.926384
      pz      :     1.497855  p :     5.225990
      px      :     1.895815
      py      :     1.832320
      dz2     :     0.006829  d :     0.017069
      dxz     :     0.003816
      dyz     :     0.004957
      dx2y2   :     0.000762
      dxy     :     0.000704
      f0      :     0.000219  f :     0.000732
      f+1     :     0.000137
      f-1     :     0.000240
      f+2     :     0.000068
      f-2     :     0.000058
      f+3     :     0.000004
      f-3     :     0.000006

 12 F s       :     3.929054  s :     3.929054
      pz      :     1.877285  p :     5.219047
      px      :     1.894708
      py      :     1.447055
      dz2     :     0.002349  d :     0.017254
      dxz     :     0.000226
      dyz     :     0.003862
      dx2y2   :     0.006574
      dxy     :     0.004244
      f0      :     0.000065  f :     0.000721
      f+1     :     0.000013
      f-1     :     0.000137
      f+2     :     0.000116
      f-2     :     0.000014
      f+3     :     0.000163
      f-3     :     0.000213

 13 F s       :     3.929512  s :     3.929512
      pz      :     1.444327  p :     5.221388
      px      :     1.899356
      py      :     1.877705
      dz2     :     0.008652  d :     0.017147
      dxz     :     0.004129
      dyz     :     0.003854
      dx2y2   :     0.000314
      dxy     :     0.000199
      f0      :     0.000332  f :     0.000715
      f+1     :     0.000167
      f-1     :     0.000181
      f+2     :     0.000020
      f-2     :     0.000012
      f+3     :     0.000002
      f-3     :     0.000002

 14 F s       :     3.928738  s :     3.928738
      pz      :     1.813574  p :     5.217638
      px      :     1.895500
      py      :     1.508563
      dz2     :     0.002244  d :     0.017315
      dxz     :     0.000772
      dyz     :     0.005413
      dx2y2   :     0.005204
      dxy     :     0.003683
      f0      :     0.000079  f :     0.000724
      f+1     :     0.000005
      f-1     :     0.000129
      f+2     :     0.000183
      f-2     :     0.000064
      f+3     :     0.000122
      f-3     :     0.000142

 15 F s       :     3.928647  s :     3.928647
      pz      :     1.450358  p :     5.217260
      px      :     1.888226
      py      :     1.878676
      dz2     :     0.008631  d :     0.017320
      dxz     :     0.004375
      dyz     :     0.003724
      dx2y2   :     0.000284
      dxy     :     0.000305
      f0      :     0.000337  f :     0.000725
      f+1     :     0.000184
      f-1     :     0.000164
      f+2     :     0.000016
      f-2     :     0.000021
      f+3     :     0.000001
      f-3     :     0.000002

 16 F s       :     3.929533  s :     3.929533
      pz      :     1.695610  p :     5.220463
      px      :     1.897963
      py      :     1.626891
      dz2     :     0.002968  d :     0.017242
      dxz     :     0.001790
      dyz     :     0.006766
      dx2y2   :     0.003128
      dxy     :     0.002591
      f0      :     0.000083  f :     0.000722
      f+1     :     0.000016
      f-1     :     0.000200
      f+2     :     0.000194
      f-2     :     0.000111
      f+3     :     0.000059
      f-3     :     0.000059

 17 F s       :     3.930614  s :     3.930614
      pz      :     1.508057  p :     5.221134
      px      :     1.898261
      py      :     1.814817
      dz2     :     0.006806  d :     0.017218
      dxz     :     0.003496
      dyz     :     0.005291
      dx2y2   :     0.000754
      dxy     :     0.000871
      f0      :     0.000226  f :     0.000716
      f+1     :     0.000109
      f-1     :     0.000247
      f+2     :     0.000059
      f-2     :     0.000066
      f+3     :     0.000006
      f-3     :     0.000004

 18 F s       :     3.929080  s :     3.929080
      pz      :     1.584302  p :     5.223493
      px      :     1.896879
      py      :     1.742311
      dz2     :     0.004719  d :     0.016556
      dxz     :     0.002774
      dyz     :     0.006143
      dx2y2   :     0.001439
      dxy     :     0.001481
      f0      :     0.000125  f :     0.000692
      f+1     :     0.000065
      f-1     :     0.000250
      f+2     :     0.000114
      f-2     :     0.000102
      f+3     :     0.000019
      f-3     :     0.000017

 19 F s       :     3.930510  s :     3.930510
      pz      :     1.610467  p :     5.220569
      px      :     1.898228
      py      :     1.711874
      dz2     :     0.004175  d :     0.016939
      dxz     :     0.002474
      dyz     :     0.006564
      dx2y2   :     0.001874
      dxy     :     0.001852
      f0      :     0.000107  f :     0.000708
      f+1     :     0.000047
      f-1     :     0.000249
      f+2     :     0.000142
      f-2     :     0.000109
      f+3     :     0.000028
      f-3     :     0.000026

 20 F s       :     3.929387  s :     3.929387
      pz      :     1.522879  p :     5.193004
      px      :     1.866877
      py      :     1.803247
      dz2     :     0.006884  d :     0.018902
      dxz     :     0.004469
      dyz     :     0.005651
      dx2y2   :     0.000972
      dxy     :     0.000927
      f0      :     0.000224  f :     0.000796
      f+1     :     0.000164
      f-1     :     0.000230
      f+2     :     0.000081
      f-2     :     0.000082
      f+3     :     0.000008
      f-3     :     0.000007

 21 F s       :     3.922825  s :     3.922825
      pz      :     1.890207  p :     5.229084
      px      :     1.728289
      py      :     1.610588
      dz2     :     0.002375  d :     0.016519
      dxz     :     0.001548
      dyz     :     0.002249
      dx2y2   :     0.003763
      dxy     :     0.006584
      f0      :     0.000062  f :     0.000732
      f+1     :     0.000059
      f-1     :     0.000101
      f+2     :     0.000015
      f-2     :     0.000101
      f+3     :     0.000233
      f-3     :     0.000161

 22 F s       :     3.922875  s :     3.922875
      pz      :     1.876528  p :     5.221238
      px      :     1.734478
      py      :     1.610232
      dz2     :     0.002392  d :     0.017115
      dxz     :     0.001736
      dyz     :     0.002785
      dx2y2   :     0.003792
      dxy     :     0.006410
      f0      :     0.000075  f :     0.000767
      f+1     :     0.000057
      f-1     :     0.000093
      f+2     :     0.000030
      f-2     :     0.000131
      f+3     :     0.000222
      f-3     :     0.000159

 23 F s       :     3.924178  s :     3.924178
      pz      :     1.523380  p :     5.222977
      px      :     1.817101
      py      :     1.882496
      dz2     :     0.006429  d :     0.016973
      dxz     :     0.005742
      dyz     :     0.003028
      dx2y2   :     0.000826
      dxy     :     0.000948
      f0      :     0.000195  f :     0.000752
      f+1     :     0.000270
      f-1     :     0.000106
      f+2     :     0.000081
      f-2     :     0.000081
      f+3     :     0.000009
      f-3     :     0.000011

 24 H s       :     0.566964  s :     0.566964
      pz      :     0.014857  p :     0.043547
      px      :     0.017429
      py      :     0.011260


SPIN
  0 C s       :     0.000138  s :     0.000138
      pz      :     0.000053  p :     0.000049
      px      :    -0.000056
      py      :     0.000052
      dz2     :     0.000003  d :     0.000015
      dxz     :     0.000001
      dyz     :     0.000009
      dx2y2   :     0.000003
      dxy     :     0.000000
      f0      :    -0.000000  f :     0.000001
      f+1     :     0.000000
      f-1     :     0.000000
      f+2     :    -0.000000
      f-2     :    -0.000000
      f+3     :     0.000000
      f-3     :     0.000000

  1 O s       :    -0.000003  s :    -0.000003
      pz      :     0.000039  p :     0.000017
      px      :    -0.000012
      py      :    -0.000009
      dz2     :     0.000001  d :     0.000001
      dxz     :     0.000000
      dyz     :     0.000000
      dx2y2   :     0.000000
      dxy     :     0.000000
      f0      :     0.000000  f :     0.000000
      f+1     :     0.000000
      f-1     :     0.000000
      f+2     :     0.000000
      f-2     :     0.000000
      f+3     :    -0.000000
      f-3     :     0.000000

  2 O s       :     0.000009  s :     0.000009
      pz      :     0.000179  p :     0.000164
      px      :    -0.000036
      py      :     0.000022
      dz2     :     0.000000  d :    -0.000001
      dxz     :    -0.000000
      dyz     :    -0.000000
      dx2y2   :    -0.000000
      dxy     :    -0.000000
      f0      :    -0.000000  f :    -0.000000
      f+1     :    -0.000000
      f-1     :    -0.000000
      f+2     :     0.000000
      f-2     :    -0.000000
      f+3     :     0.000000
      f-3     :     0.000000

  3 C s       :    -0.000165  s :    -0.000165
      pz      :     0.000041  p :     0.000550
      px      :     0.000385
      py      :     0.000124
      dz2     :    -0.000001  d :     0.000076
      dxz     :     0.000003
      dyz     :     0.000002
      dx2y2   :     0.000061
      dxy     :     0.000010
      f0      :     0.000000  f :     0.000002
      f+1     :    -0.000000
      f-1     :    -0.000000
      f+2     :     0.000000
      f-2     :     0.000001
      f+3     :     0.000000
      f-3     :     0.000000

  4 C s       :    -0.000269  s :    -0.000269
      pz      :     0.000295  p :     0.002009
      px      :     0.000750
      py      :     0.000964
      dz2     :     0.000044  d :     0.000309
      dxz     :    -0.000002
      dyz     :     0.000016
      dx2y2   :     0.000205
      dxy     :     0.000047
      f0      :    -0.000001  f :     0.000009
      f+1     :     0.000000
      f-1     :    -0.000001
      f+2     :     0.000002
      f-2     :     0.000005
      f+3     :     0.000005
      f-3     :    -0.000001

  5 C s       :    -0.002071  s :    -0.002071
      pz      :     0.000188  p :     0.006322
      px      :     0.001871
      py      :     0.004263
      dz2     :     0.000080  d :     0.000627
      dxz     :    -0.000007
      dyz     :     0.000006
      dx2y2   :     0.000561
      dxy     :    -0.000014
      f0      :    -0.000001  f :     0.000024
      f+1     :     0.000001
      f-1     :     0.000000
      f+2     :     0.000002
      f-2     :     0.000000
      f+3     :     0.000022
      f-3     :    -0.000001

  6 C s       :    -0.004478  s :    -0.004478
      pz      :     0.002040  p :     0.031476
      px      :     0.017333
      py      :     0.012102
      dz2     :     0.000355  d :     0.003395
      dxz     :     0.000099
      dyz     :    -0.000042
      dx2y2   :     0.002442
      dxy     :     0.000541
      f0      :    -0.000016  f :    -0.000039
      f+1     :     0.000009
      f-1     :    -0.000014
      f+2     :    -0.000011
      f-2     :     0.000000
      f+3     :     0.000012
      f-3     :    -0.000018

  7 C s       :    -0.003447  s :    -0.003447
      pz      :    -0.005905  p :    -0.037897
      px      :    -0.019189
      py      :    -0.012803
      dz2     :     0.001365  d :     0.020052
      dxz     :     0.000401
      dyz     :    -0.000240
      dx2y2   :     0.015788
      dxy     :     0.002738
      f0      :     0.000085  f :     0.001341
      f+1     :     0.000068
      f-1     :     0.000166
      f+2     :     0.000019
      f-2     :     0.000005
      f+3     :     0.000907
      f-3     :     0.000091

  8 C s       :     0.064674  s :     0.064674
      pz      :     0.051196  p :     0.781096
      px      :     0.180631
      py      :     0.549269
      dz2     :     0.000341  d :     0.002199
      dxz     :     0.001196
      dyz     :     0.001246
      dx2y2   :     0.000044
      dxy     :    -0.000628
      f0      :    -0.000409  f :    -0.003042
      f+1     :    -0.000230
      f-1     :    -0.000635
      f+2     :    -0.000409
      f-2     :    -0.000311
      f+3     :    -0.000310
      f-3     :    -0.000738

  9 C s       :    -0.015286  s :    -0.015286
      pz      :    -0.013724  p :    -0.022149
      px      :    -0.013533
      py      :     0.005107
      dz2     :     0.002242  d :     0.012770
      dxz     :     0.000400
      dyz     :     0.003619
      dx2y2   :    -0.000119
      dxy     :     0.006628
      f0      :     0.000117  f :     0.001830
      f+1     :     0.000127
      f-1     :     0.000213
      f+2     :     0.000253
      f-2     :     0.000769
      f+3     :     0.000169
      f-3     :     0.000183

 10 F s       :     0.000016  s :     0.000016
      pz      :    -0.000001  p :    -0.000017
      px      :    -0.000003
      py      :    -0.000013
      dz2     :     0.000000  d :     0.000002
      dxz     :    -0.000000
      dyz     :     0.000000
      dx2y2   :     0.000000
      dxy     :     0.000001
      f0      :    -0.000000  f :     0.000000
      f+1     :     0.000000
      f-1     :     0.000000
      f+2     :     0.000000
      f-2     :     0.000000
      f+3     :     0.000000
      f-3     :     0.000000

 11 F s       :     0.000005  s :     0.000005
      pz      :    -0.000010  p :     0.000042
      px      :     0.000038
      py      :     0.000014
      dz2     :     0.000000  d :     0.000001
      dxz     :     0.000001
      dyz     :     0.000000
      dx2y2   :     0.000000
[...]
 19:    197.75   0.001647    8.32  0.002599  (-0.008375  0.017804  0.047033)
 20:    209.92   0.000518    2.62  0.000770  (-0.024439 -0.011501 -0.006376)
 21:    226.38   0.000234    1.18  0.000322  ( 0.016480 -0.007079  0.000886)
 22:    245.16   0.000032    0.16  0.000041  ( 0.002844 -0.004807  0.003074)
 23:    247.75   0.000152    0.77  0.000191  (-0.013242  0.001115  0.003774)
 24:    262.96   0.000375    1.89  0.000445  (-0.015108 -0.010156  0.010657)
 25:    269.59   0.000428    2.16  0.000495  (-0.021429  0.003090 -0.005146)
 26:    305.99   0.000402    2.03  0.000410  (-0.017794  0.008236  0.005011)
 27:    312.68   0.000036    0.18  0.000036  (-0.004959  0.003094 -0.001340)
 28:    325.78   0.000086    0.43  0.000082  ( 0.002520 -0.007326 -0.004686)
 29:    351.62   0.000268    1.35  0.000238  (-0.008838 -0.009226 -0.008640)
 30:    356.48   0.000091    0.46  0.000079  (-0.002792  0.003979  0.007472)
 31:    367.61   0.000199    1.00  0.000169  ( 0.012901  0.001461 -0.000335)
 32:    377.50   0.000464    2.35  0.000384  ( 0.015762  0.011516 -0.001697)
 33:    379.86   0.000495    2.50  0.000406  ( 0.016599  0.011362  0.001318)
 34:    410.42   0.000506    2.56  0.000385  ( 0.019265  0.003589  0.000831)
 35:    436.28   0.002434   12.30  0.001741  (-0.040626  0.009528  0.000260)
 36:    474.04   0.001287    6.50  0.000847  (-0.012526  0.021441  0.015176)
 37:    509.69   0.002116   10.69  0.001296  ( 0.034122 -0.008261 -0.007944)
 38:    520.27   0.005536   27.97  0.003320  (-0.050945 -0.001899  0.026858)
 39:    553.14   0.007415   37.47  0.004183  ( 0.063527 -0.008487 -0.008682)
 40:    560.70   0.002152   10.88  0.001198  ( 0.015902 -0.025522  0.017131)
 41:    571.60   0.007943   40.14  0.004336  (-0.005343 -0.045504  0.047298)
 42:    586.67   0.005692   28.76  0.003028  (-0.049518  0.015986  0.017889)
 43:    599.31   0.007834   39.59  0.004079  (-0.045067  0.011026 -0.043891)
 44:    615.28   0.005814   29.38  0.002949  ( 0.035847 -0.004176  0.040578)
 45:    636.79   0.009766   49.35  0.004786  (-0.050482 -0.003361  0.047183)
 46:    647.36   0.062772  317.22  0.030260  (-0.166521  0.037972 -0.032994)
 47:    679.65   0.001042    5.27  0.000479  ( 0.006397  0.003674 -0.020593)
 48:    707.18   0.010335   52.23  0.004561  ( 0.054661  0.010056  0.038361)
 49:    725.67   0.001861    9.40  0.000800  ( 0.023263  0.005846 -0.014994)
 50:    758.99   0.001061    5.36  0.000436  ( 0.015452  0.013134  0.004989)
 51:    784.39   0.009924   50.15  0.003948  ( 0.033261  0.013591 -0.051548)
 52:    889.63   0.003151   15.92  0.001105  ( 0.025479 -0.016677  0.013340)
 53:   1015.45   0.021318  107.73  0.006551  ( 0.063663 -0.027553  0.041703)
 54:   1080.93   0.007613   38.47  0.002198  ( 0.028352  0.018984  0.032150)
 55:   1101.83   0.100969  510.26  0.028597  ( 0.068556  0.151365 -0.031395)
 56:   1143.80   0.032694  165.22  0.008920  ( 0.035977 -0.076605  0.041919)
 57:   1145.37   0.055833  282.16  0.015212  (-0.004694 -0.116082  0.041415)
 58:   1152.39   0.050439  254.90  0.013659  (-0.017585 -0.015308  0.114522)
 59:   1162.08   0.008498   42.94  0.002282  (-0.000907 -0.028630 -0.038229)
 60:   1168.75   0.036860  186.28  0.009842  ( 0.012580  0.066746 -0.072310)
 61:   1170.29   0.035643  180.13  0.009504  (-0.020197  0.088944  0.034430)
 62:   1177.50   0.113419  573.17  0.030059  ( 0.036687  0.080118  0.149310)
 63:   1184.56   0.136199  688.29  0.035880  ( 0.041554 -0.079280 -0.166939)
 64:   1187.56   0.088957  449.55  0.023376  ( 0.030070 -0.103597 -0.108349)
 65:   1208.39   0.007316   36.97  0.001889  (-0.034645  0.012693  0.022977)
 66:   1234.32   0.006976   35.25  0.001764  ( 0.005864 -0.013801  0.039228)
 67:   1237.93   0.008161   41.24  0.002057  (-0.030336 -0.003284 -0.033559)
 68:   1292.13   0.001463    7.39  0.000353  (-0.000386 -0.015877 -0.010056)
 69:   1321.54   0.001181    5.97  0.000279  ( 0.013253  0.008235  0.005941)
 70:   1354.85   0.042245  213.49  0.009730  ( 0.069497 -0.051497  0.047419)
 71:   1420.71   0.031219  157.77  0.006857  ( 0.066149 -0.037137 -0.033204)
 72:   1439.97   0.010838   54.77  0.002349  ( 0.045369 -0.006679 -0.015678)
 73:   1844.85   0.093451  472.26  0.015808  ( 0.032259  0.114822  0.039783)
 74:   3649.06   0.051351  259.51  0.004392  (-0.048106 -0.002844  0.045489)

* The epsilon (eps) is given for a Dirac delta lineshape.
** The dipole moment derivative (T) already includes vibrational overlap.

The first frequency considered to be a vibration is 6
The total number of vibrations considered is 69


--------------------------
THERMOCHEMISTRY AT 298.15K
--------------------------

Temperature         ...   298.15 K
Pressure            ...     1.00 atm
Total Mass          ...   395.07 AMU
Quasi RRHO          ...     True
Cut-Off Frequency   ...     1.00 cm^-1

Throughout the following assumptions are being made:
  (1) The electronic state is orbitally nondegenerate
      but the spin degeneracy is treated
  (2) There are no thermally accessible electronically excited states
  (3) Hindered rotations indicated by low frequency modes are not
      treated as such but are treated as vibrations and this may
      cause some error
  (4) All equations used are the standard statistical mechanics
      equations for an ideal gas
  (5) All vibrations are strictly harmonic

freq.      16.85  E(vib)   ...       0.57 
freq.      24.97  E(vib)   ...       0.56 
freq.      29.90  E(vib)   ...       0.55 
freq.      35.40  E(vib)   ...       0.54 
freq.      41.76  E(vib)   ...       0.53 
freq.      55.04  E(vib)   ...       0.52 
freq.      60.22  E(vib)   ...       0.51 
freq.      65.19  E(vib)   ...       0.50 
freq.      92.44  E(vib)   ...       0.47 
freq.     126.91  E(vib)   ...       0.43 
freq.     147.08  E(vib)   ...       0.41 
freq.     166.38  E(vib)   ...       0.39 
freq.     187.72  E(vib)   ...       0.36 
freq.     197.75  E(vib)   ...       0.35 
freq.     209.92  E(vib)   ...       0.34 
freq.     226.38  E(vib)   ...       0.33 
freq.     245.16  E(vib)   ...       0.31 
freq.     247.75  E(vib)   ...       0.31 
freq.     262.96  E(vib)   ...       0.29 
freq.     269.59  E(vib)   ...       0.29 
freq.     305.99  E(vib)   ...       0.26 
freq.     312.68  E(vib)   ...       0.25 
freq.     325.78  E(vib)   ...       0.24 
freq.     351.62  E(vib)   ...       0.23 
freq.     356.48  E(vib)   ...       0.22 
freq.     367.61  E(vib)   ...       0.21 
freq.     377.50  E(vib)   ...       0.21 
freq.     379.86  E(vib)   ...       0.21 
freq.     410.42  E(vib)   ...       0.19 
freq.     436.28  E(vib)   ...       0.17 
freq.     474.04  E(vib)   ...       0.15 
freq.     509.69  E(vib)   ...       0.14 
freq.     520.27  E(vib)   ...       0.13 
freq.     553.14  E(vib)   ...       0.12 
freq.     560.70  E(vib)   ...       0.11 
freq.     571.60  E(vib)   ...       0.11 
freq.     586.67  E(vib)   ...       0.11 
freq.     599.31  E(vib)   ...       0.10 
freq.     615.28  E(vib)   ...       0.10 
freq.     636.79  E(vib)   ...       0.09 
freq.     647.36  E(vib)   ...       0.09 
freq.     679.65  E(vib)   ...       0.08 
freq.     707.18  E(vib)   ...       0.07 
freq.     725.67  E(vib)   ...       0.06 
freq.     758.99  E(vib)   ...       0.06 
freq.     784.39  E(vib)   ...       0.05 
freq.     889.63  E(vib)   ...       0.04 
freq.    1015.45  E(vib)   ...       0.02 
freq.    1080.93  E(vib)   ...       0.02 
freq.    1101.83  E(vib)   ...       0.02 
freq.    1143.80  E(vib)   ...       0.01 
freq.    1145.37  E(vib)   ...       0.01 
freq.    1152.39  E(vib)   ...       0.01 
freq.    1162.08  E(vib)   ...       0.01 
freq.    1168.75  E(vib)   ...       0.01 
freq.    1170.29  E(vib)   ...       0.01 
freq.    1177.50  E(vib)   ...       0.01 
freq.    1184.56  E(vib)   ...       0.01 
freq.    1187.56  E(vib)   ...       0.01 
freq.    1208.39  E(vib)   ...       0.01 
freq.    1234.32  E(vib)   ...       0.01 
freq.    1237.93  E(vib)   ...       0.01 
freq.    1292.13  E(vib)   ...       0.01 
freq.    1321.54  E(vib)   ...       0.01 
freq.    1354.85  E(vib)   ...       0.01 
freq.    1420.71  E(vib)   ...       0.00 
freq.    1439.97  E(vib)   ...       0.00 
freq.    1844.85  E(vib)   ...       0.00 
freq.    3649.06  E(vib)   ...       0.00 

------------
INNER ENERGY
------------

The inner energy is: U= E(el) + E(ZPE) + E(vib) + E(rot) + E(trans)
    E(el)   - is the total energy from the electronic structure calculation
              = E(kin-el) + E(nuc-el) + E(el-el) + E(nuc-nuc)
    E(ZPE)  - the the zero temperature vibrational energy from the frequency calculation
    E(vib)  - the the finite temperature correction to E(ZPE) due to population
              of excited vibrational states
    E(rot)  - is the rotational thermal energy
    E(trans)- is the translational thermal energy

Summary of contributions to the inner energy U:
Electronic energy                ...  -1853.56716790 Eh
Zero point energy                ...      0.10672800 Eh      66.97 kcal/mol
Thermal vibrational correction   ...      0.02003737 Eh      12.57 kcal/mol
Thermal rotational correction    ...      0.00141627 Eh       0.89 kcal/mol
Thermal translational correction ...      0.00141627 Eh       0.89 kcal/mol
-----------------------------------------------------------------------
Total thermal energy                  -1853.43756999 Eh


Summary of corrections to the electronic energy:
(perhaps to be used in another calculation)
Total thermal correction                  0.02286991 Eh      14.35 kcal/mol
Non-thermal (ZPE) correction              0.10672800 Eh      66.97 kcal/mol
-----------------------------------------------------------------------
Total correction                          0.12959791 Eh      81.32 kcal/mol


--------
ENTHALPY
--------

The enthalpy is H = U + kB*T
                kB is Boltzmann's constant
Total thermal energy              ...  -1853.43756999 Eh 
Thermal Enthalpy correction       ...      0.00094421 Eh       0.59 kcal/mol
-----------------------------------------------------------------------
Total Enthalpy                    ...  -1853.43662578 Eh


Note: Only C1 symmetry has been detected, increase convergence thresholds 
      if your molecule has a higher symmetry. Symmetry factor of 1.0 is   
      used for the rotational entropy correction. 
 

Note: Rotational entropy computed according to Herzberg 
Infrared and Raman Spectra, Chapter V,1, Van Nostrand Reinhold, 1945 
Point Group:  C1, Symmetry Number:   1  
Rotational constants in cm-1:     0.020851     0.004093     0.004024 

Vibrational entropy computed according to the QRRHO of S. Grimme
Chem.Eur.J. 2012 18 9955 using a reference frequency of 100.0 cm-1


-------
ENTROPY
-------

The entropy contributions are T*S = T*(S(el)+S(vib)+S(rot)+S(trans))
     S(el)   - electronic entropy
     S(vib)  - vibrational entropy
     S(rot)  - rotational entropy
     S(trans)- translational entropy
The entropies will be listed as multiplied by the temperature to get
units of energy

Electronic entropy                ...      0.00065446 Eh      0.41 kcal/mol
Vibrational entropy               ...      0.03647664 Eh     22.89 kcal/mol
Rotational entropy                ...      0.01653757 Eh     10.38 kcal/mol
Translational entropy             ...      0.02081703 Eh     13.06 kcal/mol
-----------------------------------------------------------------------
Final entropy term                ...      0.07448570 Eh     46.74 kcal/mol

In case the symmetry of your molecule has not been determined correctly
or in case you have a reason to use a different symmetry number we print 
out the resulting rotational entropy values for sn=1,12:

 non-linear molecules -----------------------------------
|  sn= 1 | S(rot)=       0.01653757 Eh     10.38 kcal/mol|
|  sn= 2 | S(rot)=       0.01588312 Eh      9.97 kcal/mol|
|  sn= 3 | S(rot)=       0.01550028 Eh      9.73 kcal/mol|
|  sn= 4 | S(rot)=       0.01522866 Eh      9.56 kcal/mol|
|  sn= 5 | S(rot)=       0.01501797 Eh      9.42 kcal/mol|
|  sn= 6 | S(rot)=       0.01484583 Eh      9.32 kcal/mol|
|  sn= 7 | S(rot)=       0.01470028 Eh      9.22 kcal/mol|
|  sn= 8 | S(rot)=       0.01457420 Eh      9.15 kcal/mol|
|  sn= 9 | S(rot)=       0.01446300 Eh      9.08 kcal/mol|
|  sn=10 | S(rot)=       0.01436352 Eh      9.01 kcal/mol|
|  sn=11 | S(rot)=       0.01427353 Eh      8.96 kcal/mol|
|  sn=12 | S(rot)=       0.01419137 Eh      8.91 kcal/mol|
 linear molecules ---------------------------------------
|  Dinfh | S(rot)=       0.01053346 Eh      6.61 kcal/mol|
|  Cinfv | S(rot)=       0.01118792 Eh      7.02 kcal/mol|
 --------------------------------------------------------


-------------------
GIBBS FREE ENERGY
-------------------

The Gibbs free energy is G = H - T*S

Total enthalpy                    ...  -1853.43662578 Eh 
Total entropy correction          ...     -0.07448570 Eh    -46.74 kcal/mol
-----------------------------------------------------------------------
Final Gibbs free energy         ...  -1853.51111148 Eh

For completeness - the Gibbs free energy minus the electronic energy
G-E(el)                           ...      0.05605642 Eh     35.18 kcal/mol


Maximum memory used throughout the entire PROP-calculation: 546.5 MB

--------------------------------
SUGGESTED CITATIONS FOR THIS RUN
--------------------------------

Below you find a list of papers that are relevant to this ORCA run
We neither can nor want to force you to cite these papers, but we appreciate if you do
You receive ORCA, which is the product of decades of hard work by many enthusiastic individuals, for free
The only thing we kindly ask in return is that you cite our papers,
We deeply appreciate it, if you show your appreciation for ORCA by not just citing the generic ORCA reference.

Please note that relegating all ORCA citations to the supporting information does *not* help us.
SI sections are not indexed - citations you put there will not count into any citation statistics
But we need these citations in order to attract the funding resources that allow us to do what we are doing

Therefore, if you are a happy ORCA user, please consider citing a few of the papers listed below in the main body of your paper

In addition to the list printed below, the program has created the file rf_mecn_freq_r2s_C7_P_B.bibtex that contains the list in bibtex format
You can import this file easily into all common literature databanks and citation aid programs


List of essential papers. We consider these as the minimum necessary citations

  1. Neese,F.
     Software update: the ORCA program system, version 5.0
     WIRES Comput. Molec. Sci., 2022 12(1)e1606
     doi.org/10.1002/wcms.1606

List of papers to cite with high priority. The work reported in these papers was absolutely
necessary for this run to complete.
Our perspective: the developers of density functionals and basis sets usually get cited in chemistry papers
Good! But without the algorithms to do something with them, the functionals or basis sets would not do anything.
Hence, in our opinion, the algorithm design and method developments papers are equally worthy of getting cited

  1. Neese,F.
     An improvement of the resolution of the identity approximation for the formation of the Coulomb matrix
     J. Comp. Chem., 2003 24(14)1740-1747
     doi.org/10.1002/jcc.10318
  2. Neese,F.; Wennmohs,F.; Hansen,A.; Becker,U.
     Efficient, approximate and parallel Hartree-Fock and hybrid DFT calculations. A 'chain-of-spheres' algorithm for the Hartree-Fock exchange
     Chem. Phys., 2009 356(1-3)98-109
     doi.org/10.1016/j.chemphys.2008.10.036
  3. Bykov,D.; Petrenko,T.; Izsak,R.; Kossmann,S.; Becker,U.; Valeev,E.; Neese,F.
     Efficient implementation of the analytic second derivatives of Hartree-Fock and hybrid DFT energies: a detailed analysis of different approximations
     Molec. Phys., 2015 113 1961-1977
     doi.org/10.1080/00268976.2015.1025114
  4. Garcia-Rates,M.; Neese,F.
     Efficient implementation of the analytical second derivatives of hartree-fock and hybrid DFT energies within the framework of the conductor-like polarizable continuum model
     J. Comput. Chem., 2019 40 1816-1828
     doi.org/10.1002/jcc.25833
  5. Garcia-Rates,M.; Neese,F.
     Effect of the Solute Cavity on the Solvation Energy and its Derivatives within the Framework of the Gaussian Charge Scheme
     J. Comput. Chem., 2020 41 922-939
     doi.org/10.1002/jcc.26139
  6. Helmich-Paris,B.; de Souza,B.; Neese,F.; Izsák,R.
     An improved chain of spheres for exchange algorithm
     J. Chem. Phys., 2021 155 104109
     doi.org/doi: 10.1063/5.0058766.
  7. Neese,F.
     The SHARK Integral Generation and Digestion System
     J. Comp. Chem., 2022  1-16
     doi.org/10.1002/jcc.26942
  8. Lehtola,S.; Steigemann,C.; Oliveira,M.; Marques,M.
     Recent developments in Libxc - A comprehensive library of functionals for density functional theory
     Software X, 2018 7 
     doi.org/10.1016/j.softx.2017.11.002
  9. Grimme,S.; Antony,J.; Ehrlich,S.; Krieg,H.
     A consistent and accurate ab initio parametrization of density functional dispersion correction (DFT-D) for the 94 elements H-Pu
     J. Chem. Phys., 2010 132 154104
     doi.org/10.1063/1.3382344
 10. Grimme,S.; Ehrlich,S.; Goerigk,L.
     Effect of the damping function in dispersion corrected density functional theory
     J. Comput. Chem., 2011 32(7)1456-1465
     doi.org/10.1002/jcc.21759
 11. Bursch,M.; Neugebauer,H.; Ehlert,S.; Grimme,S.
     Dispersion corrected r2SCAN based global hybrid functionals: r2SCANh, r2SCAN0, and r2SCAN50
     J. Phys. Chem., 2022 156(13)134105
     doi.org/10.1063/5.0086040

List of suggested additional citations. These are papers that are important in the 'surrounding' of 
of this run, or papers that preceded the highly important papers. If you like your results we are grateful for a citation.

  1. Izsak,R.; Neese,F.
     An overlap fitted chain of spheres exchange method
     J. Chem. Phys., 2011 135 144105
     doi.org/10.1063/1.3646921
  2. Izsak,R.; Hansen,A.; Neese,F.
     The resolution of identity and chain of spheres approximations for the LPNO-CCSD singles Fock term
     Molec. Phys., 2012 110 2413-2417
     doi.org/10.1080/00268976.2012.687466
  3. Neese,F.
     The ORCA program system
     WIRES Comput. Molec. Sci., 2012 2(1)73-78
     doi.org/10.1002/wcms.81
  4. Izsak,R.; Neese,F.; Klopper,W.
     Robust fitting techniques in the chain of spheres approximation to the Fock exchange: The role of the complementary space
     J. Chem. Phys., 2013 139 
     doi.org/10.1063/1.4819264
  5. Neese,F.
     Software update: the ORCA program system, version 4.0
     WIRES Comput. Molec. Sci., 2018 8(1)1-6
     doi.org/10.1002/wcms.1327
  6. Neese,F.; Wennmohs,F.; Becker,U.; Riplinger,C.
     The ORCA quantum chemistry program package
     J. Chem. Phys., 2020 152 Art. No. L224108
     doi.org/10.1063/5.0004608
  7. Wittmann,L.; Neugebauer,H.; Grimme,S.; Bursch,M.
     Dispersion-corrected r2SCAN based double-hybrid functionals
     J. Chem. Phys., 2023 159(22)224103
     doi.org/10.1063/5.0174988

List of optional additional citations

  1. Neese,F.
     Approximate second-order SCF convergence for spin unrestricted wavefunctions
     Chem. Phys. Lett., 2000 325(1-3)93-98
     doi.org/10.1016/s0009-2614(00)00662-x

Timings for individual modules:

Sum of individual times          ...     1425.260 sec (=  23.754 min)
Startup calculation              ...        4.592 sec (=   0.077 min)   0.3 %
SCF iterations                   ...      102.464 sec (=   1.708 min)   7.2 %
Property integrals               ...      449.427 sec (=   7.490 min)  31.5 %
SCF Response                     ...      603.608 sec (=  10.060 min)  42.4 %
Property calculations            ...      265.170 sec (=   4.419 min)  18.6 %
                             ****ORCA TERMINATED NORMALLY****
TOTAL RUN TIME: 0 days 0 hours 23 minutes 46 seconds 165 msec
