
                                 *****************
                                 * O   R   C   A *
                                 *****************

                                            #,                                       
                                            ###                                      
                                            ####                                     
                                            #####                                    
                                            ######                                   
                                           ########,                                 
                                     ,,################,,,,,                         
                               ,,#################################,,                 
                          ,,##########################################,,             
                       ,#########################################, ''#####,          
                    ,#############################################,,   '####,        
                  ,##################################################,,,,####,       
                ,###########''''           ''''###############################       
              ,#####''   ,,,,##########,,,,          '''####'''          '####       
            ,##' ,,,,###########################,,,                        '##       
           ' ,,###''''                  '''############,,,                           
         ,,##''                                '''############,,,,        ,,,,,,###''
      ,#''                                            '''#######################'''  
     '                                                          ''''####''''         
             ,#######,   #######,   ,#######,      ##                                
            ,#'     '#,  ##    ##  ,#'     '#,    #''#        ,####,   ,####,        
            ##       ##  ##   ,#'  ##            #'  '#       #'       #'  '#        
            ##       ##  #######   ##           ,######,      #####,   #    #        
            '#,     ,#'  ##    ##  '#,     ,#' ,#      #,     #,   #   #,  ,#        
             '#######'   ##     ##  '#######'  #'      '#     '####' # '####'        



                #########################################################
                #                        -***-                          #
                #          Department of theory and spectroscopy        #
                #                                                       #
                #                      Frank Neese                      #
                #                                                       #
                #     Directorship, Architecture, Infrastructure        #
                #                    SHARK, DRIVERS                     #
                #        Core code/Algorithms in most modules           #
                #                                                       #
                #        Max Planck Institute fuer Kohlenforschung      #
                #                Kaiser Wilhelm Platz 1                 #
                #                 D-45470 Muelheim/Ruhr                 #
                #                      Germany                          #
                #                                                       #
                #                  All rights reserved                  #
                #                        -***-                          #
                #########################################################


                         Program Version 6.0.1  -  RELEASE   -


 With contributions from (in alphabetic order):
[Max-Planck-Institut fuer Kohlenforschung]                               
  Daniel Aravena         : Magnetic Suceptibility                        
  Michael Atanasov       : Ab Initio Ligand Field Theory (pilot matlab implementation)
  Alexander A. Auer      : GIAO ZORA, VPT2 properties, NMR spectrum      
  Ute Becker             : All parallelization in ORCA, NUMFREQ, NUMCALC 
  Giovanni Bistoni       : ED, misc. LED, open-shell LED, HFLD           
  Martin Brehm           : Molecular dynamics                            
  Dmytro Bykov           : pre 5.0 version of the SCF Hessian            
  Marcos Casanova-Páez   : Triplet and SCS-CIS(D). UHF-(DLPNO)-IP/EA/STEOM-CCSD. UHF-CVS-IP/STEOM-CCSD   
  Vijay G. Chilkuri      : MRCI spin determinant printing, contributions to CSF-ICE 
  Pauline Colinet        : FMM embedding                                 
  Dipayan Datta          : RHF DLPNO-CCSD density                        
  Achintya Kumar Dutta   : EOM-CC, STEOM-CC                              
  Nicolas Foglia         : Exact transition moments, OPA infrastructure, MCD improvements    
  Dmitry Ganyushin       : Spin-Orbit,Spin-Spin,Magnetic field MRCI      
  Miquel Garcia-Rates    : C-PCM and meta-GGA Hessian, CCSD/C-PCM, Gaussian charge scheme 
  Tiago L. C. Gouveia    : GS-ROHF, GS-ROCIS                             
  Yang Guo               : DLPNO-NEVPT2, F12-NEVPT2, CIM, IAO-localization        
  Andreas Hansen         : Spin unrestricted coupled pair/coupled cluster methods 
  Ingolf Harden          : AUTO-CI MPn and infrastructure                
  Benjamin Helmich-Paris : MC-RPA, TRAH-(SCF,CASSCF), AVAS, COSX integrals, SCF dyn. polar. 
  Lee Huntington         : MR-EOM, pCC                                   
  Robert Izsak           : Overlap fitted RIJCOSX, COSX-SCS-MP3, EOM     
  Riya Kayal             : Wick's Theorem for AUTO-CI, AUTO-CI UHF-CCSDT 
  Emily Kempfer          : AUTO-CI, RHF CISDT and CCSDT                  
  Christian Kollmar      : KDIIS, OOCD, Brueckner-CCSD(T), CCSD density, CASPT2, CASPT2-K, improved NEVPT2 
  Axel Koslowski         : Symmetry handling                             
  Simone Kossmann        : meta-GGA functionals, TD-DFT gradient, OOMP2, (MP2 Hessian; deprecated post 5.0) 
  Lucas Lang             : DCDCAS                                        
  Marvin Lechner         : AUTO-CI (C++ implementation), FIC-MRCC        
  Spencer Leger          : CASSCF response                               
  Dagmar Lenk            : GEPOL surface, SMD, ORCA-2-JSON               
  Dimitrios Liakos       : Extrapolation schemes; Compound Job, initial MDCI parallelization 
  Dimitrios Manganas     : Further ROCIS development; embedding schemes. LFT, Crystal Embedding 
  Dimitrios Pantazis     : SARC Basis sets                               
  Anastasios Papadopoulos: AUTO-CI, single reference methods and gradients 
  Taras Petrenko         : pre 6.0 DFT Hessian and TD-DFT gradient, (ASA, deprecated), ECA, 1-Electron XAS/XES, NRVS 
  Peter Pinski           : DLPNO-MP2, DLPNO-MP2 Gradient                 
  Christoph Reimann      : Effective Core Potentials                     
  Marius Retegan         : Local ZFS, SOC                                
  Christoph Riplinger    : Optimizer, TS searches, QM/MM, DLPNO-CCSD(T), (RO)-DLPNO pert. Triples 
  Michael Roemelt        : Original ROCIS implementation                 
  Masaaki Saitow         : Open-shell DLPNO-CCSD energy and density      
  Barbara Sandhoefer     : DKH picture change effects                    
  Kantharuban Sivalingam : CASSCF convergence/infrastructure, NEVPT2 and variants, FIC-MRCI 
  Bernardo de Souza      : ESD, SOC TD-DFT                               
  Georgi L. Stoychev     : AutoAux, RI-MP2 NMR, DLPNO-MP2 response, X2C  
  Van Anh Tran           : RI-MP2 g-tensors                              
  Willem Van den Heuvel  : Paramagnetic NMR                              
  Zikuan Wang            : NOTCH, Electric field optimization            
  Frank Wennmohs         : Technical directorship and infrastructure     
  Hang Xu                : AUTO-CI-Response properties                   
                                                                         
[FACCTs GmbH]                                                            
  Markus Bursch, Miquel Garcia-Rates, Christoph Riplinger, Bernardo de Souza, Georgi L. Stoychev 
                                                                 
  APM, Basis sets (HGBS, AHGBS, def-TZVP (Ac-Lr), def2-XVPD (La-Lu)), CI-OPT, improved COSX, DLPNO-Multilevel,           
  DOCKER, DRACO, updates on ESD, GOAT, IRC, LR-CPCM, MBIS, meta-GGA TD-DFT gradient, ML-optimized integration grids, 
  MM, NACMEs, nearIR, NEB, NEB-TS, NL-DFT gradient (VV10), 2- and 3-layer-ONIOM, interface openCOSMO-RS, QMMM,   
  Crystal-QMMM, SF, symmetry and pop. for TD-DFT, r2SCAN hybrids, SOLVATOR                                   
                                                                         
[Other institutions]                                                     
  V. Asgeirsson          : NEB                                           
  Christoph Bannwarth    : sTDA-DFT, sTD-DFT, PBEh-3c, B97-3c, D3        
  Sebastian Ehlert       : rSCAN, r2SCAN, r2SCAN-3c, D4, dhf basis sets  
  Marvin Friede          : D4 for Fr, Ra, Ac-Lr                          
  Lars Goerigk           : TD-DFT with DH, B97 family of functionals     
  Stefan Grimme          : VdW corrections, initial TS optimization, DFT functionals, gCP, sTDA/sTD-DF 
  Waldemar Hujo          : DFT-NL                                        
  H. Jonsson             : NEB                                           
  Holger Kruse           : gCP                                           
  Marcel Mueller         : wB97X-3c, vDZP basis set                      
  Hagen Neugebauer       : wr2SCAN                                       
  Tobias Risthaus        : range-separated hybrid DFT                    
  Lukas Wittmann         : regularized MP2, r2SCAN double-hybrids, wr2SCAN        
                                                                         
We gratefully acknowledge several colleagues who have allowed us to      
interface, adapt or use parts of their codes:                            
  Ed Valeev, F. Pavosevic, A. Kumar             : LibInt (2-el integral package), F12 methods 
  Garnet Chan, S. Sharma, J. Yang, R. Olivares  : DMRG                   
  Ulf Ekstrom                                   : XCFun DFT Library      
  Mihaly Kallay                                 : mrcc  (arbitrary order and MRCC methods)
  Frank Weinhold                                : gennbo (NPA and NBO analysis)           
  Simon Mueller                                 : openCOSMO-RS                            
  Christopher J. Cramer and Donald G. Truhlar   : smd solvation model                     
  S Lehtola, MJT Oliveira, MAL Marques          : LibXC Library                           
  Liviu Ungur et al                             : ANISO software                          


 Your calculation uses the libint2 library for the computation of 2-el integrals
 For citations please refer to: http://libint.valeyev.net

 Your ORCA version has been built with support for libXC version: 6.2.2
 For citations please refer to: https://libxc.gitlab.io

 This ORCA versions uses:
   CBLAS   interface :  Fast vector & matrix operations
   LAPACKE interface :  Fast linear algebra routines
   SCALAPACK package :  Parallel linear algebra routines
   Shared memory     :  Shared parallel matrices
   BLAS/LAPACK       :  OpenBLAS 0.3.27  USE64BITINT DYNAMIC_ARCH NO_AFFINITY SkylakeX SINGLE_THREADED
        Core in use  :  SkylakeX
   Copyright (c) 2011-2014, The OpenBLAS Project


NOTE: MaxCore=8000 MB was set to SCF,MP2,MDCI,CIPSI,MRCI and CIS
      => If you want to overwrite this, your respective input block should be placed after the MaxCore statement
Your calculation utilizes the atom-pairwise dispersion correction
with the Becke-Johnson damping scheme (D3BJ)


Your calculation utilizes the SMD solvation module
Please cite in your paper:
A.V. Marenich, C.J. Cramer, D.G. Truhlar J. Phys. Chem. B, 113, (2009), 6378 

Warning: RI is on but no J-basis has been assigned. Assigning Def2/J (nothing to worry about!)
================================================================================

----- Orbital basis set information -----
Your calculation utilizes the basis: def2-TZVP
   F. Weigend and R. Ahlrichs, Phys. Chem. Chem. Phys. 7, 3297 (2005).

----- AuxJ basis set information -----
Your calculation utilizes the auxiliary basis: def2/J
   F. Weigend, Phys. Chem. Chem. Phys. 8, 1057 (2006).

================================================================================
                                        WARNINGS
                       Please study these warnings very carefully!
================================================================================



WARNING: SCAN, rSCAN, or r2SCAN functional requested.
  ===> : libXC variant has now been activated.



WARNING: your system is open-shell and RHF/RKS was chosen
  ===> : WILL SWITCH to UHF/UKS


================================================================================
                                       INPUT FILE
================================================================================
NAME = rf_mecn_freq_r2s_C3_P_B.inp
|  1> !r2scanh def2-TZVP freq d3 TightSCF SlowConv defgrid2
|  2>  
|  3> %pal
|  4> nprocs 20
|  5> end
|  6>  
|  7> %scf
|  8> MaxIter 1500
|  9> end
| 10>  
| 11> %maxcore 8000
| 12>  
| 13> !CPCM
| 14> %cpcm smd true
| 15> SMDsolvent "ACETONITRILE"
| 16> end
| 17>  
| 18> * xyz 0 2
| 19> 6        4.464222000      0.330200000     -0.178044000
| 20> 8        5.243750000     -0.507438000     -0.836072000
| 21> 8        4.586103000      1.514997000     -0.087945000
| 22> 6        3.295060000     -0.430361000      0.491075000
| 23> 6        2.184446000     -0.682419000     -0.470643000
| 24> 6        0.810597000     -1.141072000     -0.113085000
| 25> 6       -0.252260000     -0.002818000     -0.169361000
| 26> 6       -1.725824000     -0.503069000     -0.125094000
| 27> 6       -2.731217000      0.610588000      0.287152000
| 28> 6       -4.205928000      0.288519000     -0.079589000
| 29> 9        3.754079000     -1.600077000      1.017017000
| 30> 9        2.843441000      0.305183000      1.531066000
| 31> 9        2.430203000     -0.508432000     -1.753822000
| 32> 9        0.415522000     -2.108286000     -0.972164000
| 33> 9        0.834878000     -1.641815000      1.135106000
| 34> 9       -0.031517000      0.820257000      0.868024000
| 35> 9       -0.072089000      0.680433000     -1.310673000
| 36> 9       -1.828305000     -1.509246000      0.755771000
| 37> 9       -2.059142000     -0.959391000     -1.342527000
| 38> 9       -2.401967000      1.760799000     -0.320741000
| 39> 9       -2.666093000      0.782406000      1.613270000
| 40> 9       -4.525095000     -0.939477000      0.314714000
| 41> 9       -4.999164000      1.157125000      0.535894000
| 42> 9       -4.399995000      0.389413000     -1.387129000
| 43> 1        5.965125000     -0.004106000     -1.257610000
| 44> *
| 45> 
| 46>                          ****END OF INPUT****
================================================================================

                       ****************************
                       * Single Point Calculation *
                       ****************************

---------------------------------
CARTESIAN COORDINATES (ANGSTROEM)
---------------------------------
  C      4.464222    0.330200   -0.178044
  O      5.243750   -0.507438   -0.836072
  O      4.586103    1.514997   -0.087945
  C      3.295060   -0.430361    0.491075
  C      2.184446   -0.682419   -0.470643
  C      0.810597   -1.141072   -0.113085
  C     -0.252260   -0.002818   -0.169361
  C     -1.725824   -0.503069   -0.125094
  C     -2.731217    0.610588    0.287152
  C     -4.205928    0.288519   -0.079589
  F      3.754079   -1.600077    1.017017
  F      2.843441    0.305183    1.531066
  F      2.430203   -0.508432   -1.753822
  F      0.415522   -2.108286   -0.972164
  F      0.834878   -1.641815    1.135106
  F     -0.031517    0.820257    0.868024
  F     -0.072089    0.680433   -1.310673
  F     -1.828305   -1.509246    0.755771
  F     -2.059142   -0.959391   -1.342527
  F     -2.401967    1.760799   -0.320741
  F     -2.666093    0.782406    1.613270
  F     -4.525095   -0.939477    0.314714
  F     -4.999164    1.157125    0.535894
  F     -4.399995    0.389413   -1.387129
  H      5.965125   -0.004106   -1.257610

----------------------------
CARTESIAN COORDINATES (A.U.)
----------------------------
  NO LB      ZA    FRAG     MASS         X           Y           Z
   0 C     6.0000    0    12.011    8.436157    0.623988   -0.336454
   1 O     8.0000    0    15.999    9.909251   -0.958919   -1.579947
   2 O     8.0000    0    15.999    8.666479    2.862929   -0.166192
   3 C     6.0000    0    12.011    6.226761   -0.813264    0.927997
   4 C     6.0000    0    12.011    4.128005   -1.289585   -0.889386
   5 C     6.0000    0    12.011    1.531806   -2.156314   -0.213700
   6 C     6.0000    0    12.011   -0.476702   -0.005325   -0.320046
   7 C     6.0000    0    12.011   -3.261335   -0.950663   -0.236393
   8 C     6.0000    0    12.011   -5.161252    1.153844    0.542639
   9 C     6.0000    0    12.011   -7.948052    0.545222   -0.150401
  10 F     9.0000    0    18.998    7.094181   -3.023707    1.921884
  11 F     9.0000    0    18.998    5.373325    0.576712    2.893295
  12 F     9.0000    0    18.998    4.592418   -0.960797   -3.314243
  13 F     9.0000    0    18.998    0.785223   -3.984083   -1.837124
  14 F     9.0000    0    18.998    1.577691   -3.102581    2.145039
  15 F     9.0000    0    18.998   -0.059558    1.550061    1.640328
  16 F     9.0000    0    18.998   -0.136228    1.285832   -2.476813
  17 F     9.0000    0    18.998   -3.454996   -2.852062    1.428200
  18 F     9.0000    0    18.998   -3.891214   -1.812986   -2.537008
  19 F     9.0000    0    18.998   -4.539060    3.327428   -0.606113
  20 F     9.0000    0    18.998   -5.038186    1.478533    3.048638
  21 F     9.0000    0    18.998   -8.551190   -1.775354    0.594723
  22 F     9.0000    0    18.998   -9.447051    2.186649    1.012693
  23 F     9.0000    0    18.998   -8.314786    0.735884   -2.621294
  24 H     1.0000    0     1.008   11.272453   -0.007759   -2.376538

--------------------------------
INTERNAL COORDINATES (ANGSTROEM)
--------------------------------
 C      0   0   0     0.000000000000     0.00000000     0.00000000
 O      1   0   0     1.319962942893     0.00000000     0.00000000
 O      1   2   0     1.194452485104   127.35884980     0.00000000
 C      1   2   3     1.546968989064   110.48549240   179.28814706
 C      4   1   2     1.490603301983   111.54187879   277.74545192
 C      5   4   1     1.491868416642   125.69630466   192.82216366
 C      6   5   4     1.558349819245   113.25799597   103.76674287
 C      7   6   5     1.556792051748   114.19481517   166.66281487
 C      8   7   6     1.555954293228   112.90200057   160.99218278
 C      9   8   7     1.553383383252   113.73358281   161.97550019
 F      4   1   2     1.362185358305   109.54249999    40.77543153
 F      4   1   2     1.351505078488   108.53083750   156.59361875
 F      5   4   1     1.318035024291   117.83184384    13.93441366
 F      6   5   4     1.352628517244   109.66921594   223.80478536
 F      6   5   4     1.345107390319   108.67673085   343.07961052
 F      7   6   5     1.342515387584   107.92437416   288.42119293
 F      7   6   5     1.342343696520   108.11613596    45.99292943
 F      8   7   6     1.341200081612   109.39430546    40.35477082
 F      8   7   6     1.342189914393   108.57338425   281.79479743
 F      9   8   7     1.341985397264   109.56702426    41.42207683
 F      9   8   7     1.338787328303   108.83629074   282.23505186
 F     10   9   8     1.328652176348   110.46373549    48.49272049
 F     10   9   8     1.327598982457   108.79181189   167.95215690
 F     10   9   8     1.325708282891   110.85783534   287.38242379
 H      2   1   3     0.975407237154   108.94994611     0.00000000

---------------------------
INTERNAL COORDINATES (A.U.)
---------------------------
 C      0   0   0     0.000000000000     0.00000000     0.00000000
 O      1   0   0     2.494368468993     0.00000000     0.00000000
 O      1   2   0     2.257188076828   127.35884980     0.00000000
 C      1   2   3     2.923347727000   110.48549240   179.28814706
 C      4   1   2     2.816832015067   111.54187879   277.74545192
 C      5   4   1     2.819222735300   125.69630466   192.82216366
 C      6   5   4     2.944854379219   113.25799597   103.76674287
 C      7   6   5     2.941910625269   114.19481517   166.66281487
 C      8   7   6     2.940327491100   112.90200057   160.99218278
 C      9   8   7     2.935469175330   113.73358281   161.97550019
 F      4   1   2     2.574157270834   109.54249999    40.77543153
 F      4   1   2     2.553974466945   108.53083750   156.59361875
 F      5   4   1     2.490725230827   117.83184384    13.93441366
 F      6   5   4     2.556097458523   109.66921594   223.80478536
 F      6   5   4     2.541884588417   108.67673085   343.07961052
 F      7   6   5     2.536986413108   107.92437416   288.42119293
 F      7   6   5     2.536661964018   108.11613596    45.99292943
 F      8   7   6     2.534500845039   109.39430546    40.35477082
 F      8   7   6     2.536371357913   108.57338425   281.79479743
 F      9   8   7     2.535984876551   109.56702426    41.42207683
 F      9   8   7     2.529941402056   108.83629074   282.23505186
 F     10   9   8     2.510788740536   110.46373549    48.49272049
 F     10   9   8     2.508798492516   108.79181189   167.95215690
 F     10   9   8     2.505225588134   110.85783534   287.38242379
 H      2   1   3     1.843252547266   108.94994611     0.00000000

---------------------
BASIS SET INFORMATION
---------------------
There are 4 groups of distinct atoms

 Group   1 Type C   : 11s6p2d1f contracted to 5s3p2d1f pattern {62111/411/11/1}
 Group   2 Type O   : 11s6p2d1f contracted to 5s3p2d1f pattern {62111/411/11/1}
 Group   3 Type F   : 11s6p2d1f contracted to 5s3p2d1f pattern {62111/411/11/1}
 Group   4 Type H   : 5s1p contracted to 3s1p pattern {311/1}

Atom   0C    basis set group =>   1
Atom   1O    basis set group =>   2
Atom   2O    basis set group =>   2
Atom   3C    basis set group =>   1
Atom   4C    basis set group =>   1
Atom   5C    basis set group =>   1
Atom   6C    basis set group =>   1
Atom   7C    basis set group =>   1
Atom   8C    basis set group =>   1
Atom   9C    basis set group =>   1
Atom  10F    basis set group =>   3
Atom  11F    basis set group =>   3
Atom  12F    basis set group =>   3
Atom  13F    basis set group =>   3
Atom  14F    basis set group =>   3
Atom  15F    basis set group =>   3
Atom  16F    basis set group =>   3
Atom  17F    basis set group =>   3
Atom  18F    basis set group =>   3
Atom  19F    basis set group =>   3
Atom  20F    basis set group =>   3
Atom  21F    basis set group =>   3
Atom  22F    basis set group =>   3
Atom  23F    basis set group =>   3
Atom  24H    basis set group =>   4
---------------------------------
AUXILIARY/J BASIS SET INFORMATION
---------------------------------
There are 4 groups of distinct atoms

 Group   1 Type C   : 12s5p4d2f1g contracted to 6s4p3d1f1g pattern {711111/2111/211/2/1}
 Group   2 Type O   : 12s5p4d2f1g contracted to 6s4p3d1f1g pattern {711111/2111/211/2/1}
 Group   3 Type F   : 12s5p4d2f1g contracted to 6s4p3d1f1g pattern {711111/2111/211/2/1}
 Group   4 Type H   : 5s2p1d contracted to 3s1p1d pattern {311/2/1}

Atom   0C    basis set group =>   1
Atom   1O    basis set group =>   2
Atom   2O    basis set group =>   2
Atom   3C    basis set group =>   1
Atom   4C    basis set group =>   1
Atom   5C    basis set group =>   1
Atom   6C    basis set group =>   1
Atom   7C    basis set group =>   1
Atom   8C    basis set group =>   1
Atom   9C    basis set group =>   1
Atom  10F    basis set group =>   3
Atom  11F    basis set group =>   3
Atom  12F    basis set group =>   3
Atom  13F    basis set group =>   3
Atom  14F    basis set group =>   3
Atom  15F    basis set group =>   3
Atom  16F    basis set group =>   3
Atom  17F    basis set group =>   3
Atom  18F    basis set group =>   3
Atom  19F    basis set group =>   3
Atom  20F    basis set group =>   3
Atom  21F    basis set group =>   3
Atom  22F    basis set group =>   3
Atom  23F    basis set group =>   3
Atom  24H    basis set group =>   4


           ************************************************************
           *        Program running with 20 parallel MPI-processes    *
           *              working on a common directory               *
           ************************************************************
------------------------------------------------------------------------------
                             ORCA STARTUP CALCULATIONS
                           -- RI-GTO INTEGRALS CHOSEN --
------------------------------------------------------------------------------
------------------------------------------------------------------------------
                   ___                                                        
                  /   \      - P O W E R E D   B Y -                         
                 /     \                                                     
                 |  |  |   _    _      __       _____    __    __             
                 |  |  |  | |  | |    /  \     |  _  \  |  |  /  |          
                  \  \/   | |  | |   /    \    | | | |  |  | /  /          
                 / \  \   | |__| |  /  /\  \   | |_| |  |  |/  /          
                |  |  |   |  __  | /  /__\  \  |    /   |      \           
                |  |  |   | |  | | |   __   |  |    \   |  |\   \          
                \     /   | |  | | |  |  |  |  | |\  \  |  | \   \       
                 \___/    |_|  |_| |__|  |__|  |_| \__\ |__|  \__/        
                                                                              
                      - O R C A' S   B I G   F R I E N D -                    
                                      &                                       
                       - I N T E G R A L  F E E D E R -                       
                                                                              
 v1 FN, 2020, v2 2021, v3 2022-2024                                           
------------------------------------------------------------------------------


----------------------
SHARK INTEGRAL PACKAGE
----------------------

Number of atoms                             ...     25
Number of basis functions                   ...    750
Number of shells                            ...    268
Maximum angular momentum                    ...      3
Integral batch strategy                     ... SHARK/LIBINT Hybrid
RI-J (if used) integral strategy            ... SPLIT-RIJ (Revised 2003 algorithm where possible)
Printlevel                                  ...      1
Contraction scheme used                     ... SEGMENTED contraction
Prescreening option                         ... SCHWARTZ
   Thresh                                   ... 2.500e-11
   Tcut                                     ... 2.500e-12
   Tpresel                                  ... 2.500e-12 
Coulomb Range Separation                    ... NOT USED
Exchange Range Separation                   ... NOT USED
Multipole approximations                    ... NOT USED
Finite Nucleus Model                        ... NOT USED
CABS basis                                  ... NOT available
Auxiliary Coulomb fitting basis             ... AVAILABLE
   # of basis functions in Aux-J            ...   1187
   # of shells in Aux-J                     ...    365
   Maximum angular momentum in Aux-J        ...      4
Auxiliary J/K fitting basis                 ... NOT available
Auxiliary Correlation fitting basis         ... NOT available
Auxiliary 'external' fitting basis          ... NOT available

Checking pre-screening integrals            ... done (  0.0 sec) Dimension = 268
Check shell pair data                       ... done (  0.0 sec)
Shell pair information
Shell pair cut-off parameter TPreSel        ...   2.5e-12
Total number of shell pairs                 ...     36046
Shell pairs after pre-screening             ...     22505
Total number of primitive shell pairs       ...    118872
Primitive shell pairs kept                  ...     47729
          la=0 lb=0:   4271 shell pairs
          la=1 lb=0:   6156 shell pairs
          la=1 lb=1:   2120 shell pairs
          la=2 lb=0:   3349 shell pairs
          la=2 lb=1:   2432 shell pairs
          la=2 lb=2:    683 shell pairs
          la=3 lb=0:   1536 shell pairs
          la=3 lb=1:   1177 shell pairs
          la=3 lb=2:    629 shell pairs
          la=3 lb=3:    152 shell pairs

Calculating one electron integrals          ... done (  0.0 sec)
Calculating RI/J V-Matrix + Cholesky decomp.... done (  0.1 sec)
Calculating Nuclear repulsion               ... done (  0.0 sec) ENN=   2668.314481310605 Eh

Diagonalization of the overlap matrix:
Smallest eigenvalue                        ... 6.181e-05
Time for diagonalization                   ...    0.119 sec
Threshold for overlap eigenvalues          ... 1.000e-07
Number of eigenvalues below threshold      ... 0
Time for construction of square roots      ...    0.058 sec
Total time needed                          ...    0.183 sec

-------------------
DFT GRID GENERATION
-------------------

General Integration Accuracy     IntAcc      ... 4.388
Radial Grid Type                 RadialGrid  ... OptM3 with GC (2021)
Angular Grid (max. ang.)         AngularGrid ... 4 (Lebedev-302)
Angular grid pruning method      GridPruning ... 4 (adaptive)
Weight generation scheme         WeightScheme... mBecke (2022)
Basis function cutoff            BFCut       ... 1.0000e-11
Integration weight cutoff        WCut        ... 1.0000e-14
Partially contracted basis set               ... off
Rotationally invariant grid construction     ... off
Angular grids for H and He will be reduced by one unit

Total number of grid points                  ...   148669
Total number of batches                      ...     2335
Average number of points per batch           ...       63
Average number of grid points per atom       ...     5947

--------------------
COSX GRID GENERATION
--------------------

GRIDX 1
-------
General Integration Accuracy     IntAcc      ... 3.816
Radial Grid Type                 RadialGrid  ... OptM3 with GC (2021)
Angular Grid (max. ang.)         AngularGrid ... 1 (Lebedev-50)
Angular grid pruning method      GridPruning ... 4 (adaptive)
Weight generation scheme         WeightScheme... mBecke (2022)
Basis function cutoff            BFCut       ... 1.0000e-11
Integration weight cutoff        WCut        ... 1.0000e-14
Partially contracted basis set               ... on
Rotationally invariant grid construction     ... off
Angular grids for H and He will be reduced by one unit

Total number of grid points                  ...    18670
Total number of batches                      ...      157
Average number of points per batch           ...      118
Average number of grid points per atom       ...      747
UseSFitting                                  ... on

GRIDX 2
-------
General Integration Accuracy     IntAcc      ... 4.020
Radial Grid Type                 RadialGrid  ... OptM3 with GC (2021)
Angular Grid (max. ang.)         AngularGrid ... 2 (Lebedev-110)
Angular grid pruning method      GridPruning ... 4 (adaptive)
Weight generation scheme         WeightScheme... mBecke (2022)
Basis function cutoff            BFCut       ... 1.0000e-11
Integration weight cutoff        WCut        ... 1.0000e-14
Partially contracted basis set               ... on
Rotationally invariant grid construction     ... off
Angular grids for H and He will be reduced by one unit

Total number of grid points                  ...    44032
Total number of batches                      ...      357
Average number of points per batch           ...      123
Average number of grid points per atom       ...     1761
UseSFitting                                  ... on

GRIDX 3
-------
General Integration Accuracy     IntAcc      ... 4.338
Radial Grid Type                 RadialGrid  ... OptM3 with GC (2021)
Angular Grid (max. ang.)         AngularGrid ... 3 (Lebedev-194)
Angular grid pruning method      GridPruning ... 4 (adaptive)
Weight generation scheme         WeightScheme... mBecke (2022)
Basis function cutoff            BFCut       ... 1.0000e-11
Integration weight cutoff        WCut        ... 1.0000e-14
Partially contracted basis set               ... on
Rotationally invariant grid construction     ... off
Angular grids for H and He will be reduced by one unit

Total number of grid points                  ...    97500
Total number of batches                      ...      776
Average number of points per batch           ...      125
Average number of grid points per atom       ...     3900
UseSFitting                                  ... on
Initializing property integral containers    ... done (  0.0 sec)

SHARK setup successfully completed in   3.9 seconds

Maximum memory used throughout the entire STARTUP-calculation: 57.5 MB


           ************************************************************
           *        Program running with 20 parallel MPI-processes    *
           *              working on a common directory               *
           ************************************************************
-------------------------------------------------------------------------------
                                 ORCA GUESS
                   Start orbitals & Density for SCF / CASSCF
-------------------------------------------------------------------------------

------------
SCF SETTINGS
------------
Hamiltonian:
 Density Functional     Method          .... DFT(GTOs)
  Functional kind                       .... Exchange
  Functional name                       .... Re-regularized SCAN exchange by Furness et al
  Functional family                     .... MGGA
  Functional refs                              
    [ 0] J. W. Furness, A. D. Kaplan, J. Ning, J. P. Perdew, and J. Sun.,  J. Phys. Chem. Lett. 11, 8208-8215 (2020), doi: 10.1021/acs.jpclett.0c02405
    [ 1] J. W. Furness, A. D. Kaplan, J. Ning, J. P. Perdew, and J. Sun.,  J. Phys. Chem. Lett. 11, 9248-9248 (2020), doi: 10.1021/acs.jpclett.0c03077
  Functional external parameters        .... 6
    Parameter  0 _c1        =  6.670000e-01 : c1 parameter        
    Parameter  1 _c2        =  8.000000e-01 : c2 parameter        
    Parameter  2 _d         =  1.240000e+00 : d parameter         
    Parameter  3 _k1        =  6.500000e-02 : k1 parameter        
    Parameter  4 _eta       =  1.000000e-03 : eta parameter       
    Parameter  5 _dp2       =  3.610000e-01 : dp2 parameter       
  Functional kind                       .... Correlation
  Functional name                       .... Re-regularized SCAN correlation by Furness et al
  Functional family                     .... MGGA
  Functional refs                              
    [ 0] J. W. Furness, A. D. Kaplan, J. Ning, J. P. Perdew, and J. Sun.,  J. Phys. Chem. Lett. 11, 8208-8215 (2020), doi: 10.1021/acs.jpclett.0c02405
    [ 1] J. W. Furness, A. D. Kaplan, J. Ning, J. P. Perdew, and J. Sun.,  J. Phys. Chem. Lett. 11, 9248-9248 (2020), doi: 10.1021/acs.jpclett.0c03077
  Functional external parameters        .... 1
    Parameter  0 _eta       =  1.000000e-03 : Regularization parameter
 Gradients option       PostSCFGGA      .... off
 Hybrid DFT is turned on
   Fraction HF Exchange ScalHFX         ....  0.100000
   Scaling of DF-GGA-X  ScalDFX         ....  0.900000
   Scaling of DF-GGA-C  ScalDFC         ....  1.000000
   Scaling of DF-LDA-C  ScalLDAC        ....  1.000000
   Perturbative correction              ....  0.000000
   NL short-range parameter             .... 11.900000
 RI-approximation to the Coulomb term is turned on
   Number of AuxJ basis functions       .... 1187
   RIJ-COSX (HFX calculated with COS-X)).... on


General Settings:
 Integral files         IntName         .... rf_mecn_freq_r2s_C3_P_B
 Hartree-Fock type      HFTyp           .... UHF
 Total Charge           Charge          ....    0
 Multiplicity           Mult            ....    2
 Number of Electrons    NEL             ....  191
 Basis Dimension        Dim             ....  750
 Nuclear Repulsion      ENuc            ....   2668.3144813106 Eh

Convergence Acceleration:
 AO-DIIS                CNVDIIS         .... on
   Start iteration      DIISMaxIt       ....     0
   Startup error        DIISStart       ....  0.200000
   # of expansion vecs  DIISMaxEq       ....     5
   Bias factor          DIISBfac        ....   1.050
   Max. coefficient     DIISMaxC        ....  10.000
 MO-DIIS                CNVKDIIS        .... off
 Trust-Rad. Augm. Hess. CNVTRAH         .... auto
   Auto Start mean grad. ratio tolernc. ....  1.125000
   Auto Start start iteration           ....    50
   Auto Start num. interpolation iter.  ....    10
   Max. Number of Micro iterations      ....    24
   Max. Number of Macro iterations      .... Maxiter - #DIIS iter
   Number of Davidson start vectors     ....     2
   Converg. threshold    (grad. norm)   ....   1.000e-05
   Grad. Scal. Fac. for Micro threshold ....   0.100
   Minimum threshold for Micro iter.    ....   1.000e-02
   NR start threshold (gradient norm)   ....   1.000e-04
   Initial trust radius                 ....   0.400
   Minimum AH scaling param. (alpha)    ....   1.000
   Maximum AH scaling param. (alpha)    .... 1000.000
   Quad. conv. algorithm                .... NR
   White noise on init. David. guess    .... on
   Maximum white noise                  ....   0.010
   Pseudo random numbers                .... off
   Inactive MOs                         .... canonical
   Orbital update algorithm             .... Taylor
   Preconditioner                       .... Diag
   Full preconditioner red. dimension   ....   250
 SOSCF                  CNVSOSCF        .... on
   Start iteration      SOSCFMaxIt      ....   150
   Startup grad/error   SOSCFStart      ....  0.001000
   Hessian update       SOSCFHessUp     .... L-BFGS
 Level Shifting         CNVShift        .... on
   Level shift para.    LevelShift      ....    0.2500
   Turn off err/grad.   ShiftErr        ....    0.0000
 Zerner damping         CNVZerner       .... off
 Static damping         CNVDamp         .... on
   Fraction old density DampFac         ....    0.8500
   Max. Damping (<1)    DampMax         ....    0.9800
   Min. Damping (>=0)   DampMin         ....    0.0000
   Turn off err/grad.   DampErr         ....    0.0300

SCF Procedure:
 Maximum # iterations   MaxIter         ....  1500
 SCF integral mode      SCFMode         .... Direct
   Integral package                     .... SHARK and LIBINT hybrid scheme
 Reset frequency        DirectResetFreq ....    20
 Integral Threshold     Thresh          ....  2.500e-11 Eh
 Primitive CutOff       TCut            ....  2.500e-12 Eh

Convergence Tolerance:
 Convergence Check Mode ConvCheckMode   .... Total+1el-Energy
 Convergence forced     ConvForced      .... 0
 Energy Change          TolE            ....  1.000e-08 Eh
 1-El. energy change                    ....  1.000e-05 Eh
 Orbital Gradient       TolG            ....  1.000e-05
 Orbital Rotation angle TolX            ....  1.000e-05
 DIIS Error             TolErr          ....  5.000e-07

------------------------------
INITIAL GUESS: MODEL POTENTIAL
------------------------------
Loading Hartree-Fock densities                     ... done
Calculating cut-offs                               ... done
Initializing the effective Hamiltonian             ... done
Setting up the integral package (SHARK)            ... done
Starting the Coulomb interaction                   ... done (   0.2 sec)
Making the grid                                    ... done (   0.4 sec)
Mapping shells                                     ... done
Starting the XC term evaluation                    ... done (   0.2 sec)
  promolecular density results
     # of electrons  =    191.001007826
     EX              =   -197.618294598
     EC              =     -6.718760376
     EX+EC           =   -204.337054975
Transforming the Hamiltonian                       ... done (   0.1 sec)
Diagonalizing the Hamiltonian                      ... done (   0.1 sec)
Back transforming the eigenvectors                 ... done (   0.0 sec)
Now organizing SCF variables                       ... done
                      ------------------
                      INITIAL GUESS DONE (   1.2 sec)
                      ------------------
             **** ENERGY FILE WAS UPDATED (rf_mecn_freq_r2s_C3_P_B.en.tmp) ****
Finished Guess after   1.9 sec
Maximum memory used throughout the entire GUESS-calculation: 46.6 MB


           ************************************************************
           *        Program running with 20 parallel MPI-processes    *
           *              working on a common directory               *
           ************************************************************

-------------------------------------------------------------------------------------------
                                      ORCA LEAN-SCF
                              memory conserving SCF solver
-------------------------------------------------------------------------------------------

--------------------
CPCM SOLVATION MODEL
--------------------
CPCM parameters:
  Epsilon                                         ...      35.6880
  Refrac                                          ...       1.3442
  Rsolv                                           ...       1.3000
  Surface type                                    ... GAUSSIAN VDW
  Discretization scheme                           ... Constant charge density
    Threshold for H atoms                         ...       5.0000 (charges/Ang^2)
    Threshold for non-H atoms                     ...       5.0000 (charges/Ang^2)
  Epsilon function type                           ...         CPCM
Solvent:                                          ... ACETONITRILE
SMD-CDS solvent descriptors:
  Soln                                            ...       1.3442
  Soln25                                          ...       1.3416
  Sola                                            ...       0.0700
  Solb                                            ...       0.3200
  Solg                                            ...      41.2500
  Solc                                            ...       0.0000
  Solh                                            ...       0.0000
Radii:
  Scheme                                          ... Element-dependent radii
  Radius for C  used is    3.4960 Bohr (=   1.8500 Ang.)
  Radius for O  used is    4.0969 Bohr (=   2.1680 Ang.)
  Radius for F  used is    3.2692 Bohr (=   1.7300 Ang.)
  Radius for H  used is    2.2677 Bohr (=   1.2000 Ang.)
Calculating surface                               ...        done! (  0.0s)
Cavity surface points                             ...         2166
Cavity Volume                                     ...    2097.7707
Cavity Surface-area                               ...    1100.4638
Calculating surface distance matrix               ...        done! (  0.0s)
Performing Cholesky decomposition & store         ...        done! (  0.1s)
Overall time for CPCM initialization              ...                 0.1s

----------------------------------------D-I-I-S--------------------------------------------
Iteration    Energy (Eh)           Delta-E    RMSDP     MaxDP     DIISErr   Damp  Time(sec)
-------------------------------------------------------------------------------------------
               ***  Starting incremental Fock matrix formation  ***
    1    -1853.2040550475817327     0.00e+00  1.89e-04  1.37e-02  1.38e-01  0.850   7.9
Warning: op=1 Small HOMO/LUMO gap (   0.054) - skipping pre-diagonalization
         Will do a full diagonalization
    2    -1853.3117939884527914    -1.08e-01  1.83e-04  1.24e-02  9.44e-02  0.850   5.7
                               ***Turning on AO-DIIS***
    3    -1853.3711807813838277    -5.94e-02  8.95e-05  4.73e-03  5.58e-02  0.850   4.7
    4    -1853.4075113823387255    -3.63e-02  6.22e-05  4.79e-03  4.29e-02  0.850   4.6
    5    -1853.4336322110916626    -2.61e-02  5.29e-05  5.00e-03  3.68e-02  0.850   4.4
    6    -1853.4545042839913549    -2.09e-02  4.75e-05  4.78e-03  3.21e-02  0.850   4.4
    7    -1853.4719842406016141    -1.75e-02  4.33e-05  4.38e-03  2.74e-02  0.850   4.2
    8    -1853.4868031398377752    -1.48e-02  2.52e-04  2.56e-02  2.26e-02  0.000   4.3
    9    -1853.5639725698306393    -7.72e-02  1.82e-05  1.63e-03  3.51e-03  0.000   4.7
   10    -1853.5641405884484811    -1.68e-04  7.50e-06  6.24e-04  2.15e-03  0.000   4.0
                              *** Initializing SOSCF ***
---------------------------------------S-O-S-C-F--------------------------------------
Iteration    Energy (Eh)           Delta-E    RMSDP     MaxDP     MaxGrad    Time(sec)
--------------------------------------------------------------------------------------
   11    -1853.5641718372985451    -3.12e-05  3.90e-06  3.58e-04  5.77e-04     4.5
               *** Restarting incremental Fock matrix formation ***
   12    -1853.5641637873127365     8.05e-06  3.07e-06  2.75e-04  1.71e-04     7.9
   13    -1853.5641640191465740    -2.32e-07  2.04e-06  1.76e-04  4.63e-04     5.0
   14    -1853.5641656244265505    -1.61e-06  1.03e-06  1.07e-04  6.16e-05     4.7
   15    -1853.5641656181392136     6.29e-09  4.41e-07  3.71e-05  2.88e-05     4.4
                 **** Energy Check signals convergence ****

               *****************************************************
               *                     SUCCESS                       *
               *           SCF CONVERGED AFTER  15 CYCLES          *
               *****************************************************

Recomputing exchange energy using gridx3       ... done (    8.817 sec)
Old exchange energy                            :    -19.930730759 Eh
New exchange energy                            :    -19.930730700 Eh
Exchange energy change after final integration :      0.000000059 Eh
Total energy after final integration           :  -1853.564165559 Eh

SMD CDS free energy correction energy :                 3.17857     Kcal/mol
Total Energy after SMD CDS correction =             -1853.559100178 Eh
             **** ENERGY FILE WAS UPDATED (rf_mecn_freq_r2s_C3_P_B.en.tmp) ****

----------------
TOTAL SCF ENERGY
----------------

Total Energy       :      -1853.55910017807037 Eh          -50437.90733 eV

Components:
Nuclear Repulsion  :       2668.31448131060506 Eh           72608.52838 eV
Electronic Energy  :      -4521.86590487933427 Eh         -123046.22682 eV
One Electron Energy:      -7887.46869523281930 Eh         -214628.93472 eV
Two Electron Energy:       3365.60279035348458 Eh           91582.70790 eV
CPCM Dielectric    :         -0.01274204940981 Eh              -0.34673 eV
SMD CDS (Gcds)     :          0.00506538092760 Eh               0.13784 eV

Virial components:
Potential Energy   :      -3700.97055943604164 Eh         -100708.52884 eV
Kinetic Energy     :       1847.41145925797127 Eh           50270.62152 eV
Virial Ratio       :          2.00332770530858

DFT components:
N(Alpha)           :       95.999969125245 electrons
N(Beta)            :       94.999954051731 electrons
N(Total)           :      190.999923176977 electrons
E(X)               :     -180.322010945666 Eh       
E(C)               :       -6.647388765408 Eh       
E(XC)              :     -186.969399711074 Eh       

CPCM Solvation Model Properties:
Surface-charge          :         -0.00833481808658
Corrected charge        :          0.00000000000000
Outlying charge corr.   :          0.00000383244637 Eh               0.00010 eV
Free-energy (cav+disp)  :          0.00506538092760 Eh               0.13784 eV

---------------
SCF CONVERGENCE
---------------

  Last Energy change         ...   -6.2873e-09  Tolerance :   1.0000e-08
  Last MAX-Density change    ...    3.7130e-05  Tolerance :   1.0000e-07
  Last RMS-Density change    ...    4.4089e-07  Tolerance :   5.0000e-09
  Last DIIS Error            ...    5.7731e-04  Tolerance :   5.0000e-07
  Last Orbital Gradient      ...    2.8778e-05  Tolerance :   1.0000e-05
  Last Orbital Rotation      ...    3.4805e-05  Tolerance :   1.0000e-05


----------------------
UHF SPIN CONTAMINATION
----------------------

Warning: in a DFT calculation there is little theoretical justification to 
         calculate <S**2> as in Hartree-Fock theory. We will do it anyways
         but you should keep in mind that the values have only limited relevance

Expectation value of <S**2>     :     0.757160
Ideal value S*(S+1) for S=0.5   :     0.750000
Deviation                       :     0.007160

----------------
ORBITAL ENERGIES
----------------
                 SPIN UP ORBITALS
  NO   OCC          E(Eh)            E(eV) 
   0   1.0000     -24.746118      -673.3761 
   1   1.0000     -24.734077      -673.0485 
   2   1.0000     -24.733740      -673.0393 
   3   1.0000     -24.733646      -673.0367 
   4   1.0000     -24.733629      -673.0363 
   5   1.0000     -24.733073      -673.0211 
   6   1.0000     -24.732786      -673.0133 
   7   1.0000     -24.732309      -673.0004 
   8   1.0000     -24.732236      -672.9984 
   9   1.0000     -24.732002      -672.9920 
  10   1.0000     -24.728331      -672.8921 
  11   1.0000     -24.726145      -672.8326 
  12   1.0000     -24.714136      -672.5058 
  13   1.0000     -24.710593      -672.4094 
  14   1.0000     -19.195076      -522.3246 
  15   1.0000     -19.139478      -520.8117 
  16   1.0000     -10.441721      -284.1337 
  17   1.0000     -10.389088      -282.7015 
  18   1.0000     -10.386942      -282.6431 
  19   1.0000     -10.386326      -282.6263 
  20   1.0000     -10.385313      -282.5987 
  21   1.0000     -10.372732      -282.2564 
  22   1.0000     -10.323802      -280.9249 
  23   1.0000     -10.308836      -280.5177 
  24   1.0000      -1.363402       -37.1001 
  25   1.0000      -1.340068       -36.4651 
  26   1.0000      -1.324000       -36.0279 
  27   1.0000      -1.316516       -35.8242 
  28   1.0000      -1.313363       -35.7384 
  29   1.0000      -1.304293       -35.4916 
  30   1.0000      -1.298931       -35.3457 
  31   1.0000      -1.275419       -34.7059 
  32   1.0000      -1.269084       -34.5335 
  33   1.0000      -1.268334       -34.5131 
  34   1.0000      -1.261794       -34.3352 
  35   1.0000      -1.258191       -34.2371 
  36   1.0000      -1.254606       -34.1396 
  37   1.0000      -1.239456       -33.7273 
  38   1.0000      -1.150783       -31.3144 
  39   1.0000      -1.063735       -28.9457 
  40   1.0000      -0.857131       -23.3237 
  41   1.0000      -0.840844       -22.8805 
  42   1.0000      -0.808844       -22.0098 
  43   1.0000      -0.775053       -21.0903 
  44   1.0000      -0.730633       -19.8815 
  45   1.0000      -0.692707       -18.8495 
  46   1.0000      -0.676755       -18.4154 
  47   1.0000      -0.653341       -17.7783 
  48   1.0000      -0.644130       -17.5277 
  49   1.0000      -0.639514       -17.4021 
  50   1.0000      -0.631075       -17.1724 
  51   1.0000      -0.622029       -16.9263 
  52   1.0000      -0.618274       -16.8241 
  53   1.0000      -0.617423       -16.8009 
  54   1.0000      -0.606372       -16.5002 
  55   1.0000      -0.598265       -16.2796 
  56   1.0000      -0.596062       -16.2197 
  57   1.0000      -0.591846       -16.1050 
  58   1.0000      -0.583460       -15.8767 
  59   1.0000      -0.578397       -15.7390 
  60   1.0000      -0.570031       -15.5113 
  61   1.0000      -0.558997       -15.2111 
  62   1.0000      -0.524340       -14.2680 
  63   1.0000      -0.509653       -13.8684 
  64   1.0000      -0.506032       -13.7698 
  65   1.0000      -0.501046       -13.6341 
  66   1.0000      -0.496213       -13.5026 
  67   1.0000      -0.491705       -13.3800 
  68   1.0000      -0.488169       -13.2837 
  69   1.0000      -0.487873       -13.2757 
  70   1.0000      -0.481672       -13.1070 
  71   1.0000      -0.476366       -12.9626 
  72   1.0000      -0.473885       -12.8951 
  73   1.0000      -0.470221       -12.7954 
  74   1.0000      -0.465856       -12.6766 
  75   1.0000      -0.463411       -12.6101 
  76   1.0000      -0.455557       -12.3963 
  77   1.0000      -0.451804       -12.2942 
  78   1.0000      -0.450392       -12.2558 
  79   1.0000      -0.447358       -12.1732 
  80   1.0000      -0.446771       -12.1573 
  81   1.0000      -0.441538       -12.0149 
  82   1.0000      -0.439966       -11.9721 
  83   1.0000      -0.436320       -11.8729 
  84   1.0000      -0.433697       -11.8015 
  85   1.0000      -0.431267       -11.7354 
  86   1.0000      -0.428514       -11.6605 
  87   1.0000      -0.427596       -11.6355 
  88   1.0000      -0.423035       -11.5114 
  89   1.0000      -0.416761       -11.3407 
  90   1.0000      -0.394807       -10.7432 
  91   1.0000      -0.376774       -10.2525 
  92   1.0000      -0.350204        -9.5295 
  93   1.0000      -0.341761        -9.2998 
  94   1.0000      -0.304364        -8.2822 
  95   1.0000      -0.267011        -7.2657 
  96   0.0000      -0.055632        -1.5138 
  97   0.0000      -0.002296        -0.0625 
  98   0.0000      -0.000372        -0.0101 
  99   0.0000       0.029331         0.7981 
 100   0.0000       0.054323         1.4782 
 101   0.0000       0.061370         1.6700 
 102   0.0000       0.077886         2.1194 
 103   0.0000       0.090690         2.4678 
 104   0.0000       0.109476         2.9790 
 105   0.0000       0.121588         3.3086 
 106   0.0000       0.131011         3.5650 

                 SPIN DOWN ORBITALS
  NO   OCC          E(Eh)            E(eV) 
   0   1.0000     -24.740834      -673.2323 
   1   1.0000     -24.734079      -673.0485 
   2   1.0000     -24.733744      -673.0394 
   3   1.0000     -24.733653      -673.0369 
   4   1.0000     -24.733620      -673.0360 
   5   1.0000     -24.733065      -673.0209 
   6   1.0000     -24.732785      -673.0133 
   7   1.0000     -24.732306      -673.0003 
   8   1.0000     -24.732221      -672.9979 
   9   1.0000     -24.731979      -672.9914 
  10   1.0000     -24.728085      -672.8854 
  11   1.0000     -24.725138      -672.8052 
  12   1.0000     -24.713028      -672.4757 
  13   1.0000     -24.708815      -672.3610 
  14   1.0000     -19.195057      -522.3241 
  15   1.0000     -19.139449      -520.8109 
  16   1.0000     -10.441701      -284.1331 
  17   1.0000     -10.388954      -282.6978 
  18   1.0000     -10.387434      -282.6565 
  19   1.0000     -10.386889      -282.6416 
  20   1.0000     -10.384602      -282.5794 
  21   1.0000     -10.373660      -282.2817 
  22   1.0000     -10.323769      -280.9240 
  23   1.0000     -10.291873      -280.0561 
  24   1.0000      -1.363384       -37.0996 
  25   1.0000      -1.339726       -36.4558 
  26   1.0000      -1.323188       -36.0058 
  27   1.0000      -1.316400       -35.8211 
  28   1.0000      -1.311678       -35.6926 
  29   1.0000      -1.300198       -35.3802 
  30   1.0000      -1.292751       -35.1776 
  31   1.0000      -1.275372       -34.7046 
  32   1.0000      -1.268943       -34.5297 
  33   1.0000      -1.268267       -34.5113 
  34   1.0000      -1.261569       -34.3290 
  35   1.0000      -1.258123       -34.2353 
  36   1.0000      -1.253483       -34.1090 
  37   1.0000      -1.236443       -33.6453 
  38   1.0000      -1.150695       -31.3120 
  39   1.0000      -1.063675       -28.9441 
  40   1.0000      -0.848547       -23.0901 
  41   1.0000      -0.830871       -22.6091 
  42   1.0000      -0.804152       -21.8821 
  43   1.0000      -0.773327       -21.0433 
  44   1.0000      -0.725144       -19.7322 
  45   1.0000      -0.689564       -18.7640 
  46   1.0000      -0.674950       -18.3663 
  47   1.0000      -0.650115       -17.6905 
  48   1.0000      -0.643118       -17.5001 
  49   1.0000      -0.638577       -17.3766 
  50   1.0000      -0.630762       -17.1639 
  51   1.0000      -0.620198       -16.8764 
  52   1.0000      -0.616677       -16.7806 
  53   1.0000      -0.615866       -16.7586 
  54   1.0000      -0.605025       -16.4636 
  55   1.0000      -0.595913       -16.2156 
  56   1.0000      -0.593941       -16.1620 
  57   1.0000      -0.590724       -16.0744 
  58   1.0000      -0.579091       -15.7579 
  59   1.0000      -0.577464       -15.7136 
  60   1.0000      -0.568856       -15.4793 
  61   1.0000      -0.557193       -15.1620 
  62   1.0000      -0.509441       -13.8626 
  63   1.0000      -0.505980       -13.7684 
  64   1.0000      -0.501470       -13.6457 
  65   1.0000      -0.497692       -13.5429 
  66   1.0000      -0.493315       -13.4238 
  67   1.0000      -0.488375       -13.2894 
  68   1.0000      -0.487742       -13.2721 
  69   1.0000      -0.486764       -13.2455 
  70   1.0000      -0.480342       -13.0708 
  71   1.0000      -0.476124       -12.9560 
  72   1.0000      -0.472707       -12.8630 
  73   1.0000      -0.469408       -12.7732 
  74   1.0000      -0.464361       -12.6359 
  75   1.0000      -0.462629       -12.5888 
  76   1.0000      -0.454541       -12.3687 
  77   1.0000      -0.451192       -12.2775 
  78   1.0000      -0.447374       -12.1737 
  79   1.0000      -0.444879       -12.1058 
  80   1.0000      -0.444448       -12.0941 
  81   1.0000      -0.441280       -12.0078 
  82   1.0000      -0.439862       -11.9693 
  83   1.0000      -0.435910       -11.8617 
  84   1.0000      -0.432538       -11.7699 
  85   1.0000      -0.430699       -11.7199 
  86   1.0000      -0.428140       -11.6503 
  87   1.0000      -0.425687       -11.5835 
  88   1.0000      -0.420800       -11.4505 
  89   1.0000      -0.415494       -11.3062 
  90   1.0000      -0.392356       -10.6766 
  91   1.0000      -0.373902       -10.1744 
  92   1.0000      -0.350030        -9.5248 
  93   1.0000      -0.339140        -9.2285 
  94   1.0000      -0.303748        -8.2654 
  95   0.0000      -0.126243        -3.4352 
  96   0.0000      -0.053800        -1.4640 
  97   0.0000       0.000563         0.0153 
  98   0.0000       0.003077         0.0837 
  99   0.0000       0.033661         0.9160 
 100   0.0000       0.056085         1.5261 
 101   0.0000       0.073671         2.0047 
 102   0.0000       0.082584         2.2472 
 103   0.0000       0.097839         2.6623 
 104   0.0000       0.111723         3.0401 
 105   0.0000       0.125777         3.4226 
*Only the first 10 virtual orbitals were printed.

                    ********************************
                    * MULLIKEN POPULATION ANALYSIS *
                    ********************************

--------------------------------------------
MULLIKEN ATOMIC CHARGES AND SPIN POPULATIONS
--------------------------------------------
   0 C :    0.276974   -0.004780
   1 O :   -0.372106   -0.000334
   2 O :   -0.325642    0.000674
   3 C :    0.459590   -0.008364
   4 C :    0.087973    0.839137
   5 C :    0.381630   -0.024958
   6 C :    0.310936    0.028762
   7 C :    0.296605    0.005259
   8 C :    0.331031    0.002019
   9 C :    0.471446    0.000685
  10 F :   -0.186846    0.028999
  11 F :   -0.181313    0.017267
  12 F :   -0.148179    0.092581
  13 F :   -0.171423    0.017332
  14 F :   -0.168293    0.003812
  15 F :   -0.169101    0.000307
  16 F :   -0.168452    0.000580
  17 F :   -0.163384   -0.000106
  18 F :   -0.164038    0.000220
  19 F :   -0.163177    0.000015
  20 F :   -0.159672    0.000091
  21 F :   -0.155759   -0.000027
  22 F :   -0.153129    0.000264
  23 F :   -0.153924    0.000016
  24 H :    0.388254    0.000549
Sum of atomic charges         :   -0.0000000
Sum of atomic spin populations:    1.0000000

-----------------------------------------------------
MULLIKEN REDUCED ORBITAL CHARGES AND SPIN POPULATIONS
-----------------------------------------------------
CHARGE
  0 C s       :     3.074689  s :     3.074689
      pz      :     0.780737  p :     2.362055
      px      :     0.819256
      py      :     0.762063
      dz2     :     0.029429  d :     0.261644
      dxz     :     0.013926
      dyz     :     0.074758
      dx2y2   :     0.049644
      dxy     :     0.093887
      f0      :     0.002365  f :     0.024637
      f+1     :     0.002400
      f-1     :     0.002740
      f+2     :     0.005016
      f-2     :     0.001925
      f+3     :     0.006275
      f-3     :     0.003916

  1 O s       :     3.786249  s :     3.786249
      pz      :     1.566470  p :     4.551700
      px      :     1.412509
      py      :     1.572722
      dz2     :     0.003562  d :     0.032318
      dxz     :     0.003719
      dyz     :     0.008299
      dx2y2   :     0.005302
      dxy     :     0.011435
      f0      :     0.000303  f :     0.001839
      f+1     :     0.000282
      f-1     :     0.000136
      f+2     :     0.000235
      f-2     :     0.000510
      f+3     :     0.000108
      f-3     :     0.000266

  2 O s       :     3.826569  s :     3.826569
      pz      :     1.502904  p :     4.464665
      px      :     1.636529
      py      :     1.325232
      dz2     :     0.002923  d :     0.032312
      dxz     :     0.000364
      dyz     :     0.010675
      dx2y2   :     0.008497
      dxy     :     0.009852
      f0      :     0.000256  f :     0.002097
      f+1     :     0.000037
      f-1     :     0.000256
      f+2     :     0.000437
      f-2     :     0.000042
      f+3     :     0.000614
      f-3     :     0.000457

  3 C s       :     2.978746  s :     2.978746
      pz      :     0.713641  p :     2.250702
      px      :     0.887137
      py      :     0.649924
      dz2     :     0.052510  d :     0.283735
      dxz     :     0.053271
      dyz     :     0.061591
      dx2y2   :     0.055515
      dxy     :     0.060848
      f0      :     0.003826  f :     0.027226
      f+1     :     0.002648
      f-1     :     0.005138
      f+2     :     0.004803
      f-2     :     0.004184
      f+3     :     0.002609
      f-3     :     0.004019

  4 C s       :     3.235585  s :     3.235585
      pz      :     0.604954  p :     2.500652
      px      :     0.907456
      py      :     0.988242
      dz2     :     0.032357  d :     0.157715
      dxz     :     0.060281
      dyz     :     0.038507
      dx2y2   :     0.013171
      dxy     :     0.013399
      f0      :     0.003348  f :     0.018076
      f+1     :     0.004826
      f-1     :     0.004350
      f+2     :     0.001501
      f-2     :     0.001368
      f+3     :     0.001279
      f-3     :     0.001403

  5 C s       :     3.061048  s :     3.061048
      pz      :     0.592257  p :     2.226117
      px      :     0.894507
      py      :     0.739353
      dz2     :     0.076315  d :     0.303483
      dxz     :     0.065531
      dyz     :     0.058364
      dx2y2   :     0.044428
      dxy     :     0.058845
      f0      :     0.004888  f :     0.027722
      f+1     :     0.004326
      f-1     :     0.005823
      f+2     :     0.003828
      f-2     :     0.003784
      f+3     :     0.002531
      f-3     :     0.002543

  6 C s       :     3.141208  s :     3.141208
      pz      :     0.569425  p :     2.225441
      px      :     0.923464
      py      :     0.732553
      dz2     :     0.082319  d :     0.294348
      dxz     :     0.063091
      dyz     :     0.056594
      dx2y2   :     0.039776
      dxy     :     0.052567
      f0      :     0.006091  f :     0.028068
      f+1     :     0.004074
      f-1     :     0.004410
      f+2     :     0.004290
      f-2     :     0.005020
      f+3     :     0.002085
      f-3     :     0.002098

  7 C s       :     3.141694  s :     3.141694
      pz      :     0.591344  p :     2.240859
      px      :     0.925093
      py      :     0.724422
      dz2     :     0.078886  d :     0.292810
      dxz     :     0.059043
      dyz     :     0.062207
      dx2y2   :     0.038642
      dxy     :     0.054032
      f0      :     0.005235  f :     0.028032
      f+1     :     0.003702
      f-1     :     0.005996
      f+2     :     0.003530
      f-2     :     0.004798
      f+3     :     0.002501
      f-3     :     0.002271

  8 C s       :     3.102248  s :     3.102248
      pz      :     0.607072  p :     2.249160
      px      :     0.924411
      py      :     0.717678
      dz2     :     0.062835  d :     0.289428
      dxz     :     0.063332
      dyz     :     0.070994
      dx2y2   :     0.042157
      dxy     :     0.050110
      f0      :     0.003480  f :     0.028133
      f+1     :     0.005433
      f-1     :     0.008277
      f+2     :     0.002362
      f-2     :     0.002433
      f+3     :     0.003126
      f-3     :     0.003021

  9 C s       :     3.020687  s :     3.020687
      pz      :     0.632280  p :     2.108336
      px      :     0.849077
      py      :     0.626979
      dz2     :     0.072375  d :     0.358878
      dxz     :     0.064221
      dyz     :     0.090158
      dx2y2   :     0.070428
      dxy     :     0.061695
      f0      :     0.004570  f :     0.040653
      f+1     :     0.007101
      f-1     :     0.010174
      f+2     :     0.004605
      f-2     :     0.003762
      f+3     :     0.005126
      f-3     :     0.005314

 10 F s       :     3.927187  s :     3.927187
      pz      :     1.820118  p :     5.243141
      px      :     1.855968
      py      :     1.567055
      dz2     :     0.001869  d :     0.015851
      dxz     :     0.001380
      dyz     :     0.004318
      dx2y2   :     0.004219
      dxy     :     0.004065
      f0      :     0.000071  f :     0.000667
      f+1     :     0.000018
      f-1     :     0.000092
      f+2     :     0.000117
      f-2     :     0.000109
      f+3     :     0.000149
      f-3     :     0.000111

 11 F s       :     3.927257  s :     3.927257
      pz      :     1.616763  p :     5.236882
      px      :     1.853469
      py      :     1.766650
      dz2     :     0.003802  d :     0.016474
      dxz     :     0.003597
      dyz     :     0.005380
      dx2y2   :     0.001711
      dxy     :     0.001982
      f0      :     0.000087  f :     0.000701
      f+1     :     0.000099
      f-1     :     0.000189
      f+2     :     0.000114
      f-2     :     0.000150
      f+3     :     0.000035
      f-3     :     0.000026

 12 F s       :     3.933442  s :     3.933442
      pz      :     1.470865  p :     5.195239
      px      :     1.882254
      py      :     1.842120
      dz2     :     0.008267  d :     0.018726
      dxz     :     0.004677
      dyz     :     0.005150
      dx2y2   :     0.000319
      dxy     :     0.000314
      f0      :     0.000317  f :     0.000772
      f+1     :     0.000197
      f-1     :     0.000203
      f+2     :     0.000026
      f-2     :     0.000026
      f+3     :     0.000002
      f-3     :     0.000002

 13 F s       :     3.928967  s :     3.928967
      pz      :     1.714122  p :     5.225329
      px      :     1.860479
      py      :     1.650727
      dz2     :     0.002622  d :     0.016441
      dxz     :     0.002204
      dyz     :     0.005830
      dx2y2   :     0.002871
      dxy     :     0.002915
      f0      :     0.000076  f :     0.000686
      f+1     :     0.000036
      f-1     :     0.000153
      f+2     :     0.000145
      f-2     :     0.000147
      f+3     :     0.000068
      f-3     :     0.000060

 14 F s       :     3.930224  s :     3.930224
      pz      :     1.499599  p :     5.220375
      px      :     1.899713
      py      :     1.821063
      dz2     :     0.006923  d :     0.016983
      dxz     :     0.003381
      dyz     :     0.005157
      dx2y2   :     0.000719
      dxy     :     0.000803
      f0      :     0.000232  f :     0.000711
      f+1     :     0.000111
      f-1     :     0.000242
      f+2     :     0.000057
      f-2     :     0.000060
      f+3     :     0.000006
      f-3     :     0.000004

 15 F s       :     3.930860  s :     3.930860
      pz      :     1.624808  p :     5.220250
      px      :     1.884443
      py      :     1.711000
      dz2     :     0.004045  d :     0.017272
      dxz     :     0.002706
      dyz     :     0.006468
      dx2y2   :     0.002080
      dxy     :     0.001972
      f0      :     0.000104  f :     0.000719
      f+1     :     0.000053
      f-1     :     0.000235
      f+2     :     0.000145
      f-2     :     0.000121
      f+3     :     0.000030
      f-3     :     0.000030

 16 F s       :     3.929617  s :     3.929617
      pz      :     1.566736  p :     5.220859
      px      :     1.889940
      py      :     1.764184
      dz2     :     0.005286  d :     0.017254
      dxz     :     0.003179
      dyz     :     0.006017
      dx2y2   :     0.001392
      dxy     :     0.001380
      f0      :     0.000149  f :     0.000723
      f+1     :     0.000083
      f-1     :     0.000254
      f+2     :     0.000107
      f-2     :     0.000100
      f+3     :     0.000014
      f-3     :     0.000016

 17 F s       :     3.928821  s :     3.928821
      pz      :     1.698898  p :     5.216484
      px      :     1.893977
      py      :     1.623609
      dz2     :     0.002966  d :     0.017354
      dxz     :     0.001810
      dyz     :     0.006772
      dx2y2   :     0.003225
      dxy     :     0.002581
      f0      :     0.000082  f :     0.000725
      f+1     :     0.000016
      f-1     :     0.000199
      f+2     :     0.000196
      f-2     :     0.000110
      f+3     :     0.000058
      f-3     :     0.000063

 18 F s       :     3.928928  s :     3.928928
      pz      :     1.519451  p :     5.217081
      px      :     1.867739
      py      :     1.829890
      dz2     :     0.006524  d :     0.017307
      dxz     :     0.004219
      dyz     :     0.004748
      dx2y2   :     0.000855
      dxy     :     0.000961
      f0      :     0.000205  f :     0.000722
      f+1     :     0.000155
      f-1     :     0.000205
      f+2     :     0.000064
      f-2     :     0.000080
      f+3     :     0.000005
      f-3     :     0.000008

 19 F s       :     3.928740  s :     3.928740
      pz      :     1.799338  p :     5.216487
      px      :     1.867698
      py      :     1.549451
      dz2     :     0.002223  d :     0.017229
      dxz     :     0.001205
      dyz     :     0.005297
      dx2y2   :     0.004573
      dxy     :     0.003932
      f0      :     0.000080  f :     0.000721
      f+1     :     0.000013
      f-1     :     0.000123
      f+2     :     0.000158
      f-2     :     0.000103
      f+3     :     0.000123
      f-3     :     0.000121

 20 F s       :     3.926719  s :     3.926719
      pz      :     1.441887  p :     5.214829
      px      :     1.895537
      py      :     1.877405
      dz2     :     0.008910  d :     0.017386
      dxz     :     0.004104
      dyz     :     0.003909
      dx2y2   :     0.000224
      dxy     :     0.000239
      f0      :     0.000359  f :     0.000738
      f+1     :     0.000171
      f-1     :     0.000179
      f+2     :     0.000012
      f-2     :     0.000015
      f+3     :     0.000001
      f-3     :     0.000001

 21 F s       :     3.924628  s :     3.924628
      pz      :     1.849048  p :     5.213001
      px      :     1.860802
      py      :     1.503151
      dz2     :     0.002322  d :     0.017362
      dxz     :     0.000683
      dyz     :     0.004446
      dx2y2   :     0.005638
      dxy     :     0.004273
      f0      :     0.000079  f :     0.000768
      f+1     :     0.000015
      f-1     :     0.000132
      f+2     :     0.000136
      f-2     :     0.000061
      f+3     :     0.000165
      f-3     :     0.000181

 22 F s       :     3.923140  s :     3.923140
      pz      :     1.796705  p :     5.211782
      px      :     1.715808
      py      :     1.699270
      dz2     :     0.002344  d :     0.017426
      dxz     :     0.003177
      dyz     :     0.003658
      dx2y2   :     0.003247
      dxy     :     0.004999
      f0      :     0.000088  f :     0.000781
      f+1     :     0.000068
      f-1     :     0.000084
      f+2     :     0.000075
      f-2     :     0.000209
      f+3     :     0.000134
      f-3     :     0.000123

 23 F s       :     3.923258  s :     3.923258
      pz      :     1.450451  p :     5.212358
      px      :     1.877464
      py      :     1.884443
      dz2     :     0.009064  d :     0.017524
      dxz     :     0.004280
      dyz     :     0.003647
      dx2y2   :     0.000290
      dxy     :     0.000243
      f0      :     0.000375  f :     0.000783
      f+1     :     0.000193
      f-1     :     0.000174
      f+2     :     0.000024
      f-2     :     0.000015
      f+3     :     0.000001
      f-3     :     0.000001

 24 H s       :     0.568138  s :     0.568138
      pz      :     0.014210  p :     0.043608
      px      :     0.017171
      py      :     0.012227


SPIN
  0 C s       :    -0.001156  s :    -0.001156
      pz      :    -0.000204  p :    -0.002903
      px      :    -0.002379
      py      :    -0.000320
      dz2     :    -0.000095  d :    -0.000744
      dxz     :    -0.000093
      dyz     :    -0.000206
      dx2y2   :    -0.000243
      dxy     :    -0.000107
      f0      :     0.000000  f :     0.000023
      f+1     :    -0.000002
      f-1     :    -0.000003
      f+2     :    -0.000008
      f-2     :    -0.000005
      f+3     :     0.000041
      f-3     :    -0.000000

  1 O s       :     0.000062  s :     0.000062
      pz      :    -0.000292  p :    -0.000432
      px      :    -0.000121
      py      :    -0.000019
      dz2     :    -0.000000  d :     0.000034
      dxz     :     0.000006
      dyz     :     0.000006
      dx2y2   :     0.000012
      dxy     :     0.000011
      f0      :     0.000000  f :     0.000002
      f+1     :     0.000000
      f-1     :     0.000000
      f+2     :     0.000000
      f-2     :     0.000000
      f+3     :     0.000000
      f-3     :     0.000000

  2 O s       :     0.000091  s :     0.000091
      pz      :    -0.000321  p :     0.000587
      px      :     0.001095
      py      :    -0.000186
      dz2     :    -0.000001  d :    -0.000003
      dxz     :    -0.000000
      dyz     :    -0.000002
      dx2y2   :     0.000004
      dxy     :    -0.000004
      f0      :     0.000000  f :    -0.000001
      f+1     :     0.000000
      f-1     :     0.000000
      f+2     :    -0.000001
      f-2     :     0.000000
      f+3     :    -0.000000
      f-3     :    -0.000001

  3 C s       :    -0.007350  s :    -0.007350
      pz      :    -0.011684  p :    -0.014728
      px      :    -0.016460
      py      :     0.013417
      dz2     :    -0.000614  d :     0.011953
      dxz     :     0.001310
      dyz     :     0.008442
      dx2y2   :    -0.001146
      dxy     :     0.003960
      f0      :     0.000026  f :     0.001761
      f+1     :     0.000019
      f-1     :     0.000094
      f+2     :     0.000198
      f-2     :     0.000765
      f+3     :     0.000398
      f-3     :     0.000260

  4 C s       :     0.060174  s :     0.060174
      pz      :     0.001245  p :     0.780644
      px      :     0.084327
      py      :     0.695072
      dz2     :    -0.001173  d :     0.001329
      dxz     :     0.001900
      dyz     :     0.002009
      dx2y2   :    -0.001972
      dxy     :     0.000566
      f0      :    -0.000553  f :    -0.003010
      f+1     :    -0.000147
      f-1     :    -0.000646
      f+2     :    -0.000411
      f-2     :    -0.000120
      f+3     :    -0.000523
      f-3     :    -0.000611

  5 C s       :    -0.012480  s :    -0.012480
      pz      :    -0.006339  p :    -0.034508
      px      :    -0.025527
      py      :    -0.002642
      dz2     :     0.001101  d :     0.020689
      dxz     :    -0.000337
      dyz     :    -0.000436
      dx2y2   :     0.007239
      dxy     :     0.013121
      f0      :     0.000036  f :     0.001341
      f+1     :     0.000060
      f-1     :     0.000134
      f+2     :     0.000136
      f-2     :     0.000089
      f+3     :     0.000662
      f-3     :     0.000223

  6 C s       :    -0.001710  s :    -0.001710
      pz      :     0.000999  p :     0.026545
      px      :     0.010716
      py      :     0.014830
      dz2     :     0.000483  d :     0.003966
      dxz     :     0.000031
      dyz     :    -0.000019
      dx2y2   :     0.003474
      dxy     :    -0.000003
      f0      :    -0.000017  f :    -0.000039
      f+1     :     0.000012
      f-1     :    -0.000021
      f+2     :    -0.000003
      f-2     :    -0.000008
      f+3     :     0.000030
      f-3     :    -0.000033

  7 C s       :    -0.001090  s :    -0.001090
      pz      :     0.000142  p :     0.005478
      px      :     0.002769
      py      :     0.002568
      dz2     :     0.000121  d :     0.000844
      dxz     :     0.000001
      dyz     :     0.000025
      dx2y2   :     0.000466
      dxy     :     0.000230
      f0      :    -0.000000  f :     0.000027
      f+1     :     0.000000
      f-1     :     0.000001
      f+2     :     0.000002
      f-2     :    -0.000000
      f+3     :     0.000016
      f-3     :     0.000008

  8 C s       :    -0.000112  s :    -0.000112
      pz      :     0.000075  p :     0.001759
      px      :     0.000346
      py      :     0.001337
      dz2     :     0.000041  d :     0.000363
      dxz     :    -0.000015
      dyz     :     0.000006
      dx2y2   :     0.000336
      dxy     :    -0.000005
      f0      :    -0.000002  f :     0.000009
      f+1     :     0.000001
      f-1     :    -0.000000
      f+2     :     0.000003
      f-2     :     0.000001
      f+3     :     0.000005
      f-3     :     0.000001

  9 C s       :     0.000289  s :     0.000289
      pz      :     0.000055  p :     0.000346
      px      :     0.000210
      py      :     0.000081
      dz2     :    -0.000001  d :     0.000045
      dxz     :     0.000005
      dyz     :    -0.000006
      dx2y2   :     0.000002
      dxy     :     0.000046
      f0      :    -0.000000  f :     0.000004
      f+1     :    -0.000000
      f-1     :    -0.000000
      f+2     :    -0.000000
      f-2     :     0.000001
      f+3     :     0.000000
      f-3     :     0.000003

 10 F s       :    -0.000050  s :    -0.000050
      pz      :     0.017337  p :     0.029041
      px      :     0.007572
      py      :     0.004132
      dz2     :     0.000008  d :     0.000002
      dxz     :     0.000036
      dyz     :    -0.000026
      dx2y2   :    -0.000001
      dxy     :    -0.000014
      f0      :     0.000001  f :     0.000006
      f+1     :     0.000001
      f-1     :    -0.000000
      f+2     :     0.000002
      f-2     :     0.000003
      f+3     :     0.000002
      f-3     :    -0.000001

 11 F s       :    -0.000195  s :    -0.000195
      pz      :     0.016979  p :     0.017456
      px      :     0.000886
      py      :    -0.000409
      dz2     :    -0.000023  d :     0.000007
      dxz     :     0.000032
      dyz     :     0.000012
      dx2y2   :     0.000001
      dxy     :    -0.000016
      f0      :     0.000001  f :    -0.000000
      f+1     :     0.000001
      f-1     :     0.000001
      f+2     :    -0.000001
      f-2     :    -0.000002
      f+3     :    -0.000000
      f-3     :    -0.000000

[...]
 19:    197.78   0.001454    7.35  0.002294  ( 0.008353  0.011824 -0.045658)
 20:    206.85   0.000145    0.73  0.000219  (-0.002540  0.013250 -0.006069)
 21:    226.68   0.000092    0.47  0.000127  (-0.004537 -0.009961  0.002725)
 22:    243.36   0.000046    0.23  0.000059  ( 0.005059 -0.003979  0.004154)
 23:    248.60   0.000057    0.29  0.000071  ( 0.007848  0.001153 -0.002896)
 24:    254.00   0.000489    2.47  0.000600  (-0.022211 -0.005162  0.008960)
 25:    279.15   0.000274    1.38  0.000306  ( 0.013691  0.007092  0.008263)
 26:    285.71   0.001538    7.77  0.001680  ( 0.036353 -0.018214 -0.005170)
 27:    310.87   0.000011    0.05  0.000011  (-0.000901  0.003004 -0.000965)
 28:    323.72   0.000082    0.41  0.000079  (-0.006738 -0.005303  0.002320)
 29:    349.87   0.000423    2.14  0.000377  (-0.004477 -0.009233 -0.016486)
 30:    354.18   0.000069    0.35  0.000061  (-0.007652  0.000746 -0.001246)
 31:    366.99   0.000091    0.46  0.000078  (-0.001546 -0.008681 -0.000095)
 32:    373.85   0.000778    3.93  0.000649  ( 0.020575  0.014005 -0.005440)
 33:    379.78   0.000104    0.53  0.000086  (-0.006233  0.006833 -0.000323)
 34:    409.04   0.001289    6.51  0.000983  ( 0.030577 -0.006272  0.003037)
 35:    425.38   0.001445    7.30  0.001060  ( 0.032326  0.003920 -0.000038)
 36:    475.68   0.002144   10.84  0.001407  (-0.022208 -0.008106  0.029119)
 37:    500.94   0.003413   17.25  0.002126  ( 0.042434 -0.000043 -0.018046)
 38:    529.28   0.005790   29.26  0.003414  ( 0.048416 -0.027387 -0.017872)
 39:    538.75   0.000868    4.39  0.000503  ( 0.005476 -0.021318  0.004312)
 40:    558.38   0.004883   24.68  0.002729  (-0.043495 -0.028584  0.004513)
 41:    571.41   0.005623   28.42  0.003071  ( 0.046024  0.006259  0.030222)
 42:    577.10   0.002739   13.84  0.001481  ( 0.011045 -0.032626 -0.017172)
 43:    603.74   0.007946   40.16  0.004107  (-0.060573  0.018791 -0.009232)
 44:    618.12   0.003837   19.39  0.001937  (-0.012429  0.004617 -0.041966)
 45:    638.84   0.034805  175.89  0.017002  ( 0.096040 -0.017099  0.086519)
 46:    661.85   0.043041  217.51  0.020294  ( 0.141261 -0.004693 -0.017804)
 47:    677.60   0.003162   15.98  0.001456  (-0.031613  0.010609 -0.018560)
 48:    707.64   0.013079   66.10  0.005768  (-0.071473  0.023655  0.010001)
 49:    729.41   0.003337   16.87  0.001428  (-0.032604  0.014805  0.012069)
 50:    770.45   0.001157    5.85  0.000469  (-0.003458  0.008906 -0.019425)
 51:    781.97   0.009987   50.47  0.003985  (-0.009064  0.002618  0.062422)
 52:    885.01   0.005432   27.45  0.001915  ( 0.023355 -0.034051 -0.014506)
 53:   1004.64   0.014949   75.55  0.004644  ( 0.056231  0.024263  0.029882)
 54:   1067.26   0.057976  292.99  0.016952  ( 0.057412 -0.115604  0.017083)
 55:   1105.81   0.019857  100.35  0.005604  (-0.034277  0.066510  0.002287)
 56:   1125.97   0.011464   57.93  0.003177  (-0.000679  0.054757  0.013353)
 57:   1133.68   0.035455  179.17  0.009759  (-0.057969  0.048798  0.063386)
 58:   1148.03   0.106505  538.23  0.028951  ( 0.059845  0.151327  0.049692)
 59:   1158.89   0.051717  261.35  0.013926  (-0.029250  0.034687  0.108937)
 60:   1169.12   0.033917  171.40  0.009053  (-0.008585 -0.001906 -0.094741)
 61:   1178.84   0.069831  352.90  0.018486  ( 0.010558  0.067461 -0.117572)
 62:   1183.01   0.044697  225.88  0.011791  (-0.008497 -0.086836  0.064638)
 63:   1188.62   0.110428  558.06  0.028992  ( 0.003571 -0.048869 -0.163068)
 64:   1200.08   0.054790  276.89  0.014247  ( 0.055719 -0.086882  0.059952)
 65:   1207.90   0.071455  361.10  0.018460  (-0.033781 -0.046758  0.123016)
 66:   1228.05   0.022486  113.63  0.005714  ( 0.011908  0.024787  0.070411)
 67:   1264.93   0.012683   64.10  0.003129  ( 0.044572 -0.031558 -0.012101)
 68:   1299.74   0.005506   27.82  0.001322  ( 0.019313 -0.023158  0.020312)
 69:   1334.78   0.022488  113.64  0.005258  ( 0.063151  0.035310  0.004752)
 70:   1360.80   0.022218  112.28  0.005095  ( 0.067840 -0.012361 -0.018439)
 71:   1387.41   0.008734   44.14  0.001964  ( 0.041468 -0.000691  0.015633)
 72:   1430.68   0.015768   79.68  0.003439  (-0.032755  0.028416  0.039483)
 73:   1849.51   0.093248  471.24  0.015734  ( 0.005312 -0.121479 -0.030792)
 74:   3650.73   0.050180  253.59  0.004289  (-0.054733 -0.011993  0.033908)

* The epsilon (eps) is given for a Dirac delta lineshape.
** The dipole moment derivative (T) already includes vibrational overlap.

The first frequency considered to be a vibration is 6
The total number of vibrations considered is 69


--------------------------
THERMOCHEMISTRY AT 298.15K
--------------------------

Temperature         ...   298.15 K
Pressure            ...     1.00 atm
Total Mass          ...   395.07 AMU
Quasi RRHO          ...     True
Cut-Off Frequency   ...     1.00 cm^-1

Throughout the following assumptions are being made:
  (1) The electronic state is orbitally nondegenerate
      but the spin degeneracy is treated
  (2) There are no thermally accessible electronically excited states
  (3) Hindered rotations indicated by low frequency modes are not
      treated as such but are treated as vibrations and this may
      cause some error
  (4) All equations used are the standard statistical mechanics
      equations for an ideal gas
  (5) All vibrations are strictly harmonic

freq.      19.44  E(vib)   ...       0.57 
freq.      26.00  E(vib)   ...       0.56 
freq.      28.98  E(vib)   ...       0.55 
freq.      37.81  E(vib)   ...       0.54 
freq.      49.11  E(vib)   ...       0.53 
freq.      50.92  E(vib)   ...       0.52 
freq.      59.97  E(vib)   ...       0.51 
freq.      77.44  E(vib)   ...       0.49 
freq.     100.86  E(vib)   ...       0.46 
freq.     122.66  E(vib)   ...       0.43 
freq.     151.83  E(vib)   ...       0.40 
freq.     162.61  E(vib)   ...       0.39 
freq.     184.29  E(vib)   ...       0.37 
freq.     197.78  E(vib)   ...       0.35 
freq.     206.85  E(vib)   ...       0.35 
freq.     226.68  E(vib)   ...       0.33 
freq.     243.36  E(vib)   ...       0.31 
freq.     248.60  E(vib)   ...       0.31 
freq.     254.00  E(vib)   ...       0.30 
freq.     279.15  E(vib)   ...       0.28 
freq.     285.71  E(vib)   ...       0.28 
freq.     310.87  E(vib)   ...       0.26 
freq.     323.72  E(vib)   ...       0.25 
freq.     349.87  E(vib)   ...       0.23 
freq.     354.18  E(vib)   ...       0.22 
freq.     366.99  E(vib)   ...       0.22 
freq.     373.85  E(vib)   ...       0.21 
freq.     379.78  E(vib)   ...       0.21 
freq.     409.04  E(vib)   ...       0.19 
freq.     425.38  E(vib)   ...       0.18 
freq.     475.68  E(vib)   ...       0.15 
freq.     500.94  E(vib)   ...       0.14 
freq.     529.28  E(vib)   ...       0.13 
freq.     538.75  E(vib)   ...       0.12 
freq.     558.38  E(vib)   ...       0.12 
freq.     571.41  E(vib)   ...       0.11 
freq.     577.10  E(vib)   ...       0.11 
freq.     603.74  E(vib)   ...       0.10 
freq.     618.12  E(vib)   ...       0.09 
freq.     638.84  E(vib)   ...       0.09 
freq.     661.85  E(vib)   ...       0.08 
freq.     677.60  E(vib)   ...       0.08 
freq.     707.64  E(vib)   ...       0.07 
freq.     729.41  E(vib)   ...       0.06 
freq.     770.45  E(vib)   ...       0.05 
freq.     781.97  E(vib)   ...       0.05 
freq.     885.01  E(vib)   ...       0.04 
freq.    1004.64  E(vib)   ...       0.02 
freq.    1067.26  E(vib)   ...       0.02 
freq.    1105.81  E(vib)   ...       0.02 
freq.    1125.97  E(vib)   ...       0.01 
freq.    1133.68  E(vib)   ...       0.01 
freq.    1148.03  E(vib)   ...       0.01 
freq.    1158.89  E(vib)   ...       0.01 
freq.    1169.12  E(vib)   ...       0.01 
freq.    1178.84  E(vib)   ...       0.01 
freq.    1183.01  E(vib)   ...       0.01 
freq.    1188.62  E(vib)   ...       0.01 
freq.    1200.08  E(vib)   ...       0.01 
freq.    1207.90  E(vib)   ...       0.01 
freq.    1228.05  E(vib)   ...       0.01 
freq.    1264.93  E(vib)   ...       0.01 
freq.    1299.74  E(vib)   ...       0.01 
freq.    1334.78  E(vib)   ...       0.01 
freq.    1360.80  E(vib)   ...       0.01 
freq.    1387.41  E(vib)   ...       0.00 
freq.    1430.68  E(vib)   ...       0.00 
freq.    1849.51  E(vib)   ...       0.00 
freq.    3650.73  E(vib)   ...       0.00 

------------
INNER ENERGY
------------

The inner energy is: U= E(el) + E(ZPE) + E(vib) + E(rot) + E(trans)
    E(el)   - is the total energy from the electronic structure calculation
              = E(kin-el) + E(nuc-el) + E(el-el) + E(nuc-nuc)
    E(ZPE)  - the the zero temperature vibrational energy from the frequency calculation
    E(vib)  - the the finite temperature correction to E(ZPE) due to population
              of excited vibrational states
    E(rot)  - is the rotational thermal energy
    E(trans)- is the translational thermal energy

Summary of contributions to the inner energy U:
Electronic energy                ...  -1853.56737517 Eh
Zero point energy                ...      0.10664644 Eh      66.92 kcal/mol
Thermal vibrational correction   ...      0.02004928 Eh      12.58 kcal/mol
Thermal rotational correction    ...      0.00141627 Eh       0.89 kcal/mol
Thermal translational correction ...      0.00141627 Eh       0.89 kcal/mol
-----------------------------------------------------------------------
Total thermal energy                  -1853.43784692 Eh


Summary of corrections to the electronic energy:
(perhaps to be used in another calculation)
Total thermal correction                  0.02288182 Eh      14.36 kcal/mol
Non-thermal (ZPE) correction              0.10664644 Eh      66.92 kcal/mol
-----------------------------------------------------------------------
Total correction                          0.12952826 Eh      81.28 kcal/mol


--------
ENTHALPY
--------

The enthalpy is H = U + kB*T
                kB is Boltzmann's constant
Total thermal energy              ...  -1853.43784692 Eh 
Thermal Enthalpy correction       ...      0.00094421 Eh       0.59 kcal/mol
-----------------------------------------------------------------------
Total Enthalpy                    ...  -1853.43690271 Eh


Note: Only C1 symmetry has been detected, increase convergence thresholds 
      if your molecule has a higher symmetry. Symmetry factor of 1.0 is   
      used for the rotational entropy correction. 
 

Note: Rotational entropy computed according to Herzberg 
Infrared and Raman Spectra, Chapter V,1, Van Nostrand Reinhold, 1945 
Point Group:  C1, Symmetry Number:   1  
Rotational constants in cm-1:     0.020919     0.004075     0.004010 

Vibrational entropy computed according to the QRRHO of S. Grimme
Chem.Eur.J. 2012 18 9955 using a reference frequency of 100.0 cm-1


-------
ENTROPY
-------

The entropy contributions are T*S = T*(S(el)+S(vib)+S(rot)+S(trans))
     S(el)   - electronic entropy
     S(vib)  - vibrational entropy
     S(rot)  - rotational entropy
     S(trans)- translational entropy
The entropies will be listed as multiplied by the temperature to get
units of energy

Electronic entropy                ...      0.00065446 Eh      0.41 kcal/mol
Vibrational entropy               ...      0.03641323 Eh     22.85 kcal/mol
Rotational entropy                ...      0.01653972 Eh     10.38 kcal/mol
Translational entropy             ...      0.02081703 Eh     13.06 kcal/mol
-----------------------------------------------------------------------
Final entropy term                ...      0.07442444 Eh     46.70 kcal/mol

In case the symmetry of your molecule has not been determined correctly
or in case you have a reason to use a different symmetry number we print 
out the resulting rotational entropy values for sn=1,12:

 non-linear molecules -----------------------------------
|  sn= 1 | S(rot)=       0.01653972 Eh     10.38 kcal/mol|
|  sn= 2 | S(rot)=       0.01588526 Eh      9.97 kcal/mol|
|  sn= 3 | S(rot)=       0.01550243 Eh      9.73 kcal/mol|
|  sn= 4 | S(rot)=       0.01523080 Eh      9.56 kcal/mol|
|  sn= 5 | S(rot)=       0.01502012 Eh      9.43 kcal/mol|
|  sn= 6 | S(rot)=       0.01484797 Eh      9.32 kcal/mol|
|  sn= 7 | S(rot)=       0.01470243 Eh      9.23 kcal/mol|
|  sn= 8 | S(rot)=       0.01457635 Eh      9.15 kcal/mol|
|  sn= 9 | S(rot)=       0.01446514 Eh      9.08 kcal/mol|
|  sn=10 | S(rot)=       0.01436566 Eh      9.01 kcal/mol|
|  sn=11 | S(rot)=       0.01427567 Eh      8.96 kcal/mol|
|  sn=12 | S(rot)=       0.01419351 Eh      8.91 kcal/mol|
 linear molecules ---------------------------------------
|  Dinfh | S(rot)=       0.01053666 Eh      6.61 kcal/mol|
|  Cinfv | S(rot)=       0.01119112 Eh      7.02 kcal/mol|
 --------------------------------------------------------


-------------------
GIBBS FREE ENERGY
-------------------

The Gibbs free energy is G = H - T*S

Total enthalpy                    ...  -1853.43690271 Eh 
Total entropy correction          ...     -0.07442444 Eh    -46.70 kcal/mol
-----------------------------------------------------------------------
Final Gibbs free energy         ...  -1853.51132714 Eh

For completeness - the Gibbs free energy minus the electronic energy
G-E(el)                           ...      0.05604803 Eh     35.17 kcal/mol


Maximum memory used throughout the entire PROP-calculation: 545.1 MB

--------------------------------
SUGGESTED CITATIONS FOR THIS RUN
--------------------------------

Below you find a list of papers that are relevant to this ORCA run
We neither can nor want to force you to cite these papers, but we appreciate if you do
You receive ORCA, which is the product of decades of hard work by many enthusiastic individuals, for free
The only thing we kindly ask in return is that you cite our papers,
We deeply appreciate it, if you show your appreciation for ORCA by not just citing the generic ORCA reference.

Please note that relegating all ORCA citations to the supporting information does *not* help us.
SI sections are not indexed - citations you put there will not count into any citation statistics
But we need these citations in order to attract the funding resources that allow us to do what we are doing

Therefore, if you are a happy ORCA user, please consider citing a few of the papers listed below in the main body of your paper

In addition to the list printed below, the program has created the file rf_mecn_freq_r2s_C3_P_B.bibtex that contains the list in bibtex format
You can import this file easily into all common literature databanks and citation aid programs


List of essential papers. We consider these as the minimum necessary citations

  1. Neese,F.
     Software update: the ORCA program system, version 5.0
     WIRES Comput. Molec. Sci., 2022 12(1)e1606
     doi.org/10.1002/wcms.1606

List of papers to cite with high priority. The work reported in these papers was absolutely
necessary for this run to complete.
Our perspective: the developers of density functionals and basis sets usually get cited in chemistry papers
Good! But without the algorithms to do something with them, the functionals or basis sets would not do anything.
Hence, in our opinion, the algorithm design and method developments papers are equally worthy of getting cited

  1. Neese,F.
     An improvement of the resolution of the identity approximation for the formation of the Coulomb matrix
     J. Comp. Chem., 2003 24(14)1740-1747
     doi.org/10.1002/jcc.10318
  2. Neese,F.; Wennmohs,F.; Hansen,A.; Becker,U.
     Efficient, approximate and parallel Hartree-Fock and hybrid DFT calculations. A 'chain-of-spheres' algorithm for the Hartree-Fock exchange
     Chem. Phys., 2009 356(1-3)98-109
     doi.org/10.1016/j.chemphys.2008.10.036
  3. Bykov,D.; Petrenko,T.; Izsak,R.; Kossmann,S.; Becker,U.; Valeev,E.; Neese,F.
     Efficient implementation of the analytic second derivatives of Hartree-Fock and hybrid DFT energies: a detailed analysis of different approximations
     Molec. Phys., 2015 113 1961-1977
     doi.org/10.1080/00268976.2015.1025114
  4. Garcia-Rates,M.; Neese,F.
     Efficient implementation of the analytical second derivatives of hartree-fock and hybrid DFT energies within the framework of the conductor-like polarizable continuum model
     J. Comput. Chem., 2019 40 1816-1828
     doi.org/10.1002/jcc.25833
  5. Garcia-Rates,M.; Neese,F.
     Effect of the Solute Cavity on the Solvation Energy and its Derivatives within the Framework of the Gaussian Charge Scheme
     J. Comput. Chem., 2020 41 922-939
     doi.org/10.1002/jcc.26139
  6. Helmich-Paris,B.; de Souza,B.; Neese,F.; Izsák,R.
     An improved chain of spheres for exchange algorithm
     J. Chem. Phys., 2021 155 104109
     doi.org/doi: 10.1063/5.0058766.
  7. Neese,F.
     The SHARK Integral Generation and Digestion System
     J. Comp. Chem., 2022  1-16
     doi.org/10.1002/jcc.26942
  8. Lehtola,S.; Steigemann,C.; Oliveira,M.; Marques,M.
     Recent developments in Libxc - A comprehensive library of functionals for density functional theory
     Software X, 2018 7 
     doi.org/10.1016/j.softx.2017.11.002
  9. Grimme,S.; Antony,J.; Ehrlich,S.; Krieg,H.
     A consistent and accurate ab initio parametrization of density functional dispersion correction (DFT-D) for the 94 elements H-Pu
     J. Chem. Phys., 2010 132 154104
     doi.org/10.1063/1.3382344
 10. Grimme,S.; Ehrlich,S.; Goerigk,L.
     Effect of the damping function in dispersion corrected density functional theory
     J. Comput. Chem., 2011 32(7)1456-1465
     doi.org/10.1002/jcc.21759
 11. Bursch,M.; Neugebauer,H.; Ehlert,S.; Grimme,S.
     Dispersion corrected r2SCAN based global hybrid functionals: r2SCANh, r2SCAN0, and r2SCAN50
     J. Phys. Chem., 2022 156(13)134105
     doi.org/10.1063/5.0086040

List of suggested additional citations. These are papers that are important in the 'surrounding' of 
of this run, or papers that preceded the highly important papers. If you like your results we are grateful for a citation.

  1. Izsak,R.; Neese,F.
     An overlap fitted chain of spheres exchange method
     J. Chem. Phys., 2011 135 144105
     doi.org/10.1063/1.3646921
  2. Izsak,R.; Hansen,A.; Neese,F.
     The resolution of identity and chain of spheres approximations for the LPNO-CCSD singles Fock term
     Molec. Phys., 2012 110 2413-2417
     doi.org/10.1080/00268976.2012.687466
  3. Neese,F.
     The ORCA program system
     WIRES Comput. Molec. Sci., 2012 2(1)73-78
     doi.org/10.1002/wcms.81
  4. Izsak,R.; Neese,F.; Klopper,W.
     Robust fitting techniques in the chain of spheres approximation to the Fock exchange: The role of the complementary space
     J. Chem. Phys., 2013 139 
     doi.org/10.1063/1.4819264
  5. Neese,F.
     Software update: the ORCA program system, version 4.0
     WIRES Comput. Molec. Sci., 2018 8(1)1-6
     doi.org/10.1002/wcms.1327
  6. Neese,F.; Wennmohs,F.; Becker,U.; Riplinger,C.
     The ORCA quantum chemistry program package
     J. Chem. Phys., 2020 152 Art. No. L224108
     doi.org/10.1063/5.0004608
  7. Wittmann,L.; Neugebauer,H.; Grimme,S.; Bursch,M.
     Dispersion-corrected r2SCAN based double-hybrid functionals
     J. Chem. Phys., 2023 159(22)224103
     doi.org/10.1063/5.0174988

List of optional additional citations

  1. Neese,F.
     Approximate second-order SCF convergence for spin unrestricted wavefunctions
     Chem. Phys. Lett., 2000 325(1-3)93-98
     doi.org/10.1016/s0009-2614(00)00662-x

Timings for individual modules:

Sum of individual times          ...     1456.582 sec (=  24.276 min)
Startup calculation              ...        4.504 sec (=   0.075 min)   0.3 %
SCF iterations                   ...       90.065 sec (=   1.501 min)   6.2 %
Property integrals               ...      459.342 sec (=   7.656 min)  31.5 %
SCF Response                     ...      620.332 sec (=  10.339 min)  42.6 %
Property calculations            ...      282.340 sec (=   4.706 min)  19.4 %
                             ****ORCA TERMINATED NORMALLY****
TOTAL RUN TIME: 0 days 0 hours 24 minutes 17 seconds 444 msec
