
                                 *****************
                                 * O   R   C   A *
                                 *****************

                                            #,                                       
                                            ###                                      
                                            ####                                     
                                            #####                                    
                                            ######                                   
                                           ########,                                 
                                     ,,################,,,,,                         
                               ,,#################################,,                 
                          ,,##########################################,,             
                       ,#########################################, ''#####,          
                    ,#############################################,,   '####,        
                  ,##################################################,,,,####,       
                ,###########''''           ''''###############################       
              ,#####''   ,,,,##########,,,,          '''####'''          '####       
            ,##' ,,,,###########################,,,                        '##       
           ' ,,###''''                  '''############,,,                           
         ,,##''                                '''############,,,,        ,,,,,,###''
      ,#''                                            '''#######################'''  
     '                                                          ''''####''''         
             ,#######,   #######,   ,#######,      ##                                
            ,#'     '#,  ##    ##  ,#'     '#,    #''#        ,####,   ,####,        
            ##       ##  ##   ,#'  ##            #'  '#       #'       #'  '#        
            ##       ##  #######   ##           ,######,      #####,   #    #        
            '#,     ,#'  ##    ##  '#,     ,#' ,#      #,     #,   #   #,  ,#        
             '#######'   ##     ##  '#######'  #'      '#     '####' # '####'        



                #########################################################
                #                        -***-                          #
                #          Department of theory and spectroscopy        #
                #                                                       #
                #                      Frank Neese                      #
                #                                                       #
                #     Directorship, Architecture, Infrastructure        #
                #                    SHARK, DRIVERS                     #
                #        Core code/Algorithms in most modules           #
                #                                                       #
                #        Max Planck Institute fuer Kohlenforschung      #
                #                Kaiser Wilhelm Platz 1                 #
                #                 D-45470 Muelheim/Ruhr                 #
                #                      Germany                          #
                #                                                       #
                #                  All rights reserved                  #
                #                        -***-                          #
                #########################################################


                         Program Version 6.0.1  -  RELEASE   -


 With contributions from (in alphabetic order):
[Max-Planck-Institut fuer Kohlenforschung]                               
  Daniel Aravena         : Magnetic Suceptibility                        
  Michael Atanasov       : Ab Initio Ligand Field Theory (pilot matlab implementation)
  Alexander A. Auer      : GIAO ZORA, VPT2 properties, NMR spectrum      
  Ute Becker             : All parallelization in ORCA, NUMFREQ, NUMCALC 
  Giovanni Bistoni       : ED, misc. LED, open-shell LED, HFLD           
  Martin Brehm           : Molecular dynamics                            
  Dmytro Bykov           : pre 5.0 version of the SCF Hessian            
  Marcos Casanova-Páez   : Triplet and SCS-CIS(D). UHF-(DLPNO)-IP/EA/STEOM-CCSD. UHF-CVS-IP/STEOM-CCSD   
  Vijay G. Chilkuri      : MRCI spin determinant printing, contributions to CSF-ICE 
  Pauline Colinet        : FMM embedding                                 
  Dipayan Datta          : RHF DLPNO-CCSD density                        
  Achintya Kumar Dutta   : EOM-CC, STEOM-CC                              
  Nicolas Foglia         : Exact transition moments, OPA infrastructure, MCD improvements    
  Dmitry Ganyushin       : Spin-Orbit,Spin-Spin,Magnetic field MRCI      
  Miquel Garcia-Rates    : C-PCM and meta-GGA Hessian, CCSD/C-PCM, Gaussian charge scheme 
  Tiago L. C. Gouveia    : GS-ROHF, GS-ROCIS                             
  Yang Guo               : DLPNO-NEVPT2, F12-NEVPT2, CIM, IAO-localization        
  Andreas Hansen         : Spin unrestricted coupled pair/coupled cluster methods 
  Ingolf Harden          : AUTO-CI MPn and infrastructure                
  Benjamin Helmich-Paris : MC-RPA, TRAH-(SCF,CASSCF), AVAS, COSX integrals, SCF dyn. polar. 
  Lee Huntington         : MR-EOM, pCC                                   
  Robert Izsak           : Overlap fitted RIJCOSX, COSX-SCS-MP3, EOM     
  Riya Kayal             : Wick's Theorem for AUTO-CI, AUTO-CI UHF-CCSDT 
  Emily Kempfer          : AUTO-CI, RHF CISDT and CCSDT                  
  Christian Kollmar      : KDIIS, OOCD, Brueckner-CCSD(T), CCSD density, CASPT2, CASPT2-K, improved NEVPT2 
  Axel Koslowski         : Symmetry handling                             
  Simone Kossmann        : meta-GGA functionals, TD-DFT gradient, OOMP2, (MP2 Hessian; deprecated post 5.0) 
  Lucas Lang             : DCDCAS                                        
  Marvin Lechner         : AUTO-CI (C++ implementation), FIC-MRCC        
  Spencer Leger          : CASSCF response                               
  Dagmar Lenk            : GEPOL surface, SMD, ORCA-2-JSON               
  Dimitrios Liakos       : Extrapolation schemes; Compound Job, initial MDCI parallelization 
  Dimitrios Manganas     : Further ROCIS development; embedding schemes. LFT, Crystal Embedding 
  Dimitrios Pantazis     : SARC Basis sets                               
  Anastasios Papadopoulos: AUTO-CI, single reference methods and gradients 
  Taras Petrenko         : pre 6.0 DFT Hessian and TD-DFT gradient, (ASA, deprecated), ECA, 1-Electron XAS/XES, NRVS 
  Peter Pinski           : DLPNO-MP2, DLPNO-MP2 Gradient                 
  Christoph Reimann      : Effective Core Potentials                     
  Marius Retegan         : Local ZFS, SOC                                
  Christoph Riplinger    : Optimizer, TS searches, QM/MM, DLPNO-CCSD(T), (RO)-DLPNO pert. Triples 
  Michael Roemelt        : Original ROCIS implementation                 
  Masaaki Saitow         : Open-shell DLPNO-CCSD energy and density      
  Barbara Sandhoefer     : DKH picture change effects                    
  Kantharuban Sivalingam : CASSCF convergence/infrastructure, NEVPT2 and variants, FIC-MRCI 
  Bernardo de Souza      : ESD, SOC TD-DFT                               
  Georgi L. Stoychev     : AutoAux, RI-MP2 NMR, DLPNO-MP2 response, X2C  
  Van Anh Tran           : RI-MP2 g-tensors                              
  Willem Van den Heuvel  : Paramagnetic NMR                              
  Zikuan Wang            : NOTCH, Electric field optimization            
  Frank Wennmohs         : Technical directorship and infrastructure     
  Hang Xu                : AUTO-CI-Response properties                   
                                                                         
[FACCTs GmbH]                                                            
  Markus Bursch, Miquel Garcia-Rates, Christoph Riplinger, Bernardo de Souza, Georgi L. Stoychev 
                                                                 
  APM, Basis sets (HGBS, AHGBS, def-TZVP (Ac-Lr), def2-XVPD (La-Lu)), CI-OPT, improved COSX, DLPNO-Multilevel,           
  DOCKER, DRACO, updates on ESD, GOAT, IRC, LR-CPCM, MBIS, meta-GGA TD-DFT gradient, ML-optimized integration grids, 
  MM, NACMEs, nearIR, NEB, NEB-TS, NL-DFT gradient (VV10), 2- and 3-layer-ONIOM, interface openCOSMO-RS, QMMM,   
  Crystal-QMMM, SF, symmetry and pop. for TD-DFT, r2SCAN hybrids, SOLVATOR                                   
                                                                         
[Other institutions]                                                     
  V. Asgeirsson          : NEB                                           
  Christoph Bannwarth    : sTDA-DFT, sTD-DFT, PBEh-3c, B97-3c, D3        
  Sebastian Ehlert       : rSCAN, r2SCAN, r2SCAN-3c, D4, dhf basis sets  
  Marvin Friede          : D4 for Fr, Ra, Ac-Lr                          
  Lars Goerigk           : TD-DFT with DH, B97 family of functionals     
  Stefan Grimme          : VdW corrections, initial TS optimization, DFT functionals, gCP, sTDA/sTD-DF 
  Waldemar Hujo          : DFT-NL                                        
  H. Jonsson             : NEB                                           
  Holger Kruse           : gCP                                           
  Marcel Mueller         : wB97X-3c, vDZP basis set                      
  Hagen Neugebauer       : wr2SCAN                                       
  Tobias Risthaus        : range-separated hybrid DFT                    
  Lukas Wittmann         : regularized MP2, r2SCAN double-hybrids, wr2SCAN        
                                                                         
We gratefully acknowledge several colleagues who have allowed us to      
interface, adapt or use parts of their codes:                            
  Ed Valeev, F. Pavosevic, A. Kumar             : LibInt (2-el integral package), F12 methods 
  Garnet Chan, S. Sharma, J. Yang, R. Olivares  : DMRG                   
  Ulf Ekstrom                                   : XCFun DFT Library      
  Mihaly Kallay                                 : mrcc  (arbitrary order and MRCC methods)
  Frank Weinhold                                : gennbo (NPA and NBO analysis)           
  Simon Mueller                                 : openCOSMO-RS                            
  Christopher J. Cramer and Donald G. Truhlar   : smd solvation model                     
  S Lehtola, MJT Oliveira, MAL Marques          : LibXC Library                           
  Liviu Ungur et al                             : ANISO software                          


 Your calculation uses the libint2 library for the computation of 2-el integrals
 For citations please refer to: http://libint.valeyev.net

 Your ORCA version has been built with support for libXC version: 6.2.2
 For citations please refer to: https://libxc.gitlab.io

 This ORCA versions uses:
   CBLAS   interface :  Fast vector & matrix operations
   LAPACKE interface :  Fast linear algebra routines
   SCALAPACK package :  Parallel linear algebra routines
   Shared memory     :  Shared parallel matrices
   BLAS/LAPACK       :  OpenBLAS 0.3.27  USE64BITINT DYNAMIC_ARCH NO_AFFINITY SkylakeX SINGLE_THREADED
        Core in use  :  SkylakeX
   Copyright (c) 2011-2014, The OpenBLAS Project


NOTE: MaxCore=8000 MB was set to SCF,MP2,MDCI,CIPSI,MRCI and CIS
      => If you want to overwrite this, your respective input block should be placed after the MaxCore statement
Your calculation utilizes the atom-pairwise dispersion correction
with the Becke-Johnson damping scheme (D3BJ)


Your calculation utilizes the SMD solvation module
Please cite in your paper:
A.V. Marenich, C.J. Cramer, D.G. Truhlar J. Phys. Chem. B, 113, (2009), 6378 

Warning: RI is on but no J-basis has been assigned. Assigning Def2/J (nothing to worry about!)
================================================================================

----- Orbital basis set information -----
Your calculation utilizes the basis: def2-TZVP
   F. Weigend and R. Ahlrichs, Phys. Chem. Chem. Phys. 7, 3297 (2005).

----- AuxJ basis set information -----
Your calculation utilizes the auxiliary basis: def2/J
   F. Weigend, Phys. Chem. Chem. Phys. 8, 1057 (2006).

================================================================================
                                        WARNINGS
                       Please study these warnings very carefully!
================================================================================



WARNING: SCAN, rSCAN, or r2SCAN functional requested.
  ===> : libXC variant has now been activated.



================================================================================
                                       INPUT FILE
================================================================================
NAME = rf_mecn_2H2O_freq_r2s_con_01.inp
|  1> !r2scanh def2-TZVP freq d3 TightSCF SlowConv defgrid2
|  2>  
|  3> %pal
|  4> nprocs 20
|  5> end
|  6>  
|  7> %scf
|  8> MaxIter 1500
|  9> end
| 10>  
| 11> %maxcore 8000
| 12>  
| 13> !CPCM
| 14> %cpcm smd true
| 15> SMDsolvent "ACETONITRILE"
| 16> end
| 17>  
| 18> * xyz -1 1
| 19> 6        7.487515000     27.424265000      3.046320000
| 20> 6        6.615141000     26.227614000      2.576456000
| 21> 6        7.443738000     24.986050000      2.137955000
| 22> 6        6.596555000     23.677436000      2.091862000
| 23> 6        7.246185000     22.567357000      1.211771000
| 24> 6        6.687017000     21.145636000      1.507595000
| 25> 6        6.945199000     20.109349000      0.387660000
| 26> 6        6.777299000     18.643770000      0.916494000
| 27> 9        8.460570000     27.658571000      2.171905000
| 28> 9        8.020550000     27.183036000      4.235624000
| 29> 9        6.721365000     28.504880000      3.134823000
| 30> 9        5.801745000     25.891103000      3.589226000
| 31> 9        5.876199000     26.641463000      1.539703000
| 32> 9        7.951594000     25.230075000      0.920215000
| 33> 9        8.455583000     24.811928000      3.001561000
| 34> 9        6.457589000     23.222625000      3.345994000
| 35> 9        5.382570000     23.963035000      1.596226000
| 36> 9        7.023357000     22.871991000     -0.076522000
| 37> 9        8.571706000     22.565669000      1.434686000
| 38> 9        7.264298000     20.703173000      2.641935000
| 39> 9        5.361154000     21.240222000      1.716163000
| 40> 9        6.081518000     20.358004000     -0.624166000
| 41> 9        8.196120000     20.323987000     -0.094523000
| 42> 8        7.828166000     18.047518000      1.184419000
| 43> 8        5.598567000     18.274041000      1.017725000
| 44> 8        3.145575000     19.300196000      0.230077000
| 45> 1        2.663317000     18.472466000      0.149413000
| 46> 1        4.049427000     19.025629000      0.477334000
| 47> 1        9.402096000     18.823793000      1.556137000
| 48> 8       10.265695000     19.192703000      1.827489000
| 49> 1       10.291564000     20.060077000      1.414219000
| 50> *
| 51> 
| 52>                          ****END OF INPUT****
================================================================================

                       ****************************
                       * Single Point Calculation *
                       ****************************

---------------------------------
CARTESIAN COORDINATES (ANGSTROEM)
---------------------------------
  C      7.487515   27.424265    3.046320
  C      6.615141   26.227614    2.576456
  C      7.443738   24.986050    2.137955
  C      6.596555   23.677436    2.091862
  C      7.246185   22.567357    1.211771
  C      6.687017   21.145636    1.507595
  C      6.945199   20.109349    0.387660
  C      6.777299   18.643770    0.916494
  F      8.460570   27.658571    2.171905
  F      8.020550   27.183036    4.235624
  F      6.721365   28.504880    3.134823
  F      5.801745   25.891103    3.589226
  F      5.876199   26.641463    1.539703
  F      7.951594   25.230075    0.920215
  F      8.455583   24.811928    3.001561
  F      6.457589   23.222625    3.345994
  F      5.382570   23.963035    1.596226
  F      7.023357   22.871991   -0.076522
  F      8.571706   22.565669    1.434686
  F      7.264298   20.703173    2.641935
  F      5.361154   21.240222    1.716163
  F      6.081518   20.358004   -0.624166
  F      8.196120   20.323987   -0.094523
  O      7.828166   18.047518    1.184419
  O      5.598567   18.274041    1.017725
  O      3.145575   19.300196    0.230077
  H      2.663317   18.472466    0.149413
  H      4.049427   19.025629    0.477334
  H      9.402096   18.823793    1.556137
  O     10.265695   19.192703    1.827489
  H     10.291564   20.060077    1.414219

----------------------------
CARTESIAN COORDINATES (A.U.)
----------------------------
  NO LB      ZA    FRAG     MASS         X           Y           Z
   0 C     6.0000    0    12.011   14.149353   51.824350    5.756711
   1 C     6.0000    0    12.011   12.500805   49.563008    4.868796
   2 C     6.0000    0    12.011   14.066626   47.216792    4.040149
   3 C     6.0000    0    12.011   12.465682   44.743870    3.953046
   4 C     6.0000    0    12.011   13.693305   42.646124    2.289915
   5 C     6.0000    0    12.011   12.636631   39.959461    2.848942
   6 C     6.0000    0    12.011   13.124524   38.001162    0.732571
   7 C     6.0000    0    12.011   12.807239   35.231619    1.731923
   8 F     9.0000    0    18.998   15.988160   52.267124    4.104306
   9 F     9.0000    0    18.998   15.156643   51.368494    8.004169
  10 F     9.0000    0    18.998   12.701539   53.866417    5.923957
  11 F     9.0000    0    18.998   10.963709   48.927094    6.782654
  12 F     9.0000    0    18.998   11.104407   50.345069    2.909617
  13 F     9.0000    0    18.998   15.026335   47.677932    1.738954
  14 F     9.0000    0    18.998   15.978736   46.887749    5.672128
  15 F     9.0000    0    18.998   12.203075   43.884401    6.323012
  16 F     9.0000    0    18.998   10.171583   45.283573    3.016430
  17 F     9.0000    0    18.998   13.272221   43.221799   -0.144606
  18 F     9.0000    0    18.998   16.198177   42.642934    2.711164
  19 F     9.0000    0    18.998   13.727534   39.123327    4.992534
  20 F     9.0000    0    18.998   10.131113   40.138203    3.243078
  21 F     9.0000    0    18.998   11.492403   38.471052   -1.179503
  22 F     9.0000    0    18.998   15.488422   38.406769   -0.178623
  23 O     8.0000    0    15.999   14.793090   34.104866    2.238228
  24 O     8.0000    0    15.999   10.579758   34.532933    1.923222
  25 O     8.0000    0    15.999    5.944275   36.472085    0.434783
  26 H     1.0000    0     1.008    5.032940   34.907902    0.282350
  27 H     1.0000    0     1.008    7.652308   35.953228    0.902031
  28 H     1.0000    0     1.008   17.767387   35.571814    2.940673
  29 O     8.0000    0    15.999   19.399352   36.268952    3.453454
  30 H     1.0000    0     1.008   19.448237   37.908052    2.672487

--------------------------------
INTERNAL COORDINATES (ANGSTROEM)
--------------------------------
 C      0   0   0     0.000000000000     0.00000000     0.00000000
 C      1   0   0     1.553635153494     0.00000000     0.00000000
 C      2   1   0     1.555743321215   113.63211996     0.00000000
 C      3   2   1     1.559587830529   112.86995912   162.36265234
 C      4   3   2     1.558478325618   112.82522401   160.16508489
 C      5   4   3     1.556107738250   113.18062165   161.49878685
 C      6   5   4     1.547515135861   114.47430811   161.22008710
 C      7   6   5     1.567092088806   111.35660837   162.01652536
 F      1   2   3     1.329036089384   110.36003048    48.04966492
 F      1   2   3     1.325428891371   110.91618682   286.96033141
 F      1   2   3     1.327609649609   108.84760379   167.42867295
 F      2   1   3     1.341847897057   107.77436155   121.65346159
 F      2   1   3     1.338716944381   107.82097833   239.31461019
 F      3   2   1     1.341773686193   108.19509640   283.50884433
 F      3   2   1     1.341627406602   108.89459687    41.61666303
 F      4   3   2     1.341272406449   108.25025549   281.19101992
 F      4   3   2     1.342006487884   108.88907013    39.43019040
 F      5   4   3     1.342442939342   108.12605222   282.69934272
 F      5   4   3     1.344135360747   108.56043113    40.64073715
 F      6   5   4     1.347499200345   107.82377740   282.09729440
 F      6   5   4     1.345496122919   108.62274786    39.30597056
 F      7   6   5     1.353353624542   108.15336751   284.03583915
 F      7   6   5     1.357708829158   107.75027455    39.45123981
 O      8   7   6     1.237587049390   115.63633576   259.70521913
 O      8   7   6     1.239498437525   114.10536820    78.68825112
 O     25   8   7     2.773184668931   135.04026045     9.50747798
 H     26  25   8     0.961361748958    98.56662277   152.82842332
 H     26  25   8     0.976458652193     5.88235697   352.69652282
 H     24   8   7     1.793887619682   125.54801154    21.95845552
 O     29  24   8     0.977512009545   174.85677052   132.63369181
 H     30  29  24     0.961144606153   104.18163226   201.21654998

---------------------------
INTERNAL COORDINATES (A.U.)
---------------------------
 C      0   0   0     0.000000000000     0.00000000     0.00000000
 C      1   0   0     2.935944952137     0.00000000     0.00000000
 C      2   1   0     2.939928811774   113.63211996     0.00000000
 C      3   2   1     2.947193881496   112.86995912   162.36265234
 C      4   3   2     2.945097221071   112.82522401   160.16508489
 C      5   4   3     2.940617460168   113.18062165   161.49878685
 C      6   5   4     2.924379794875   114.47430811   161.22008710
 C      7   6   5     2.961374874477   111.35660837   162.01652536
 F      1   2   3     2.511514231034   110.36003048    48.04966492
 F      1   2   3     2.504697614679   110.91618682   286.96033141
 F      1   2   3     2.508818650512   108.84760379   167.42867295
 F      2   1   3     2.535725038816   107.77436155   121.65346159
 F      2   1   3     2.529808395721   107.82097833   239.31461019
 F      3   2   1     2.535584800608   108.19509640   283.50884433
 F      3   2   1     2.535308372240   108.89459687    41.61666303
 F      4   3   2     2.534637519174   108.25025549   281.19101992
 F      4   3   2     2.536024732046   108.88907013    39.43019040
 F      5   4   3     2.536849505773   108.12605222   282.69934272
 F      5   4   3     2.540047718731   108.56043113    40.64073715
 F      6   5   4     2.546404454330   107.82377740   282.09729440
 F      6   5   4     2.542619186569   108.62274786    39.30597056
 F      7   6   5     2.557467712735   108.15336751   284.03583915
 F      7   6   5     2.565697856716   107.75027455    39.45123981
 O      8   7   6     2.338700590235   115.63633576   259.70521913
 O      8   7   6     2.342312590345   114.10536820    78.68825112
 O     25   8   7     5.240559543068   135.04026045     9.50747798
 H     26  25   8     1.816710421159    98.56662277   152.82842332
 H     26  25   8     1.845239433742     5.88235697   352.69652282
 H     24   8   7     3.389956316231   125.54801154    21.95845552
 O     29  24   8     1.847229990659   174.85677052   132.63369181
 H     30  29  24     1.816300080725   104.18163226   201.21654998

---------------------
BASIS SET INFORMATION
---------------------
There are 4 groups of distinct atoms

 Group   1 Type C   : 11s6p2d1f contracted to 5s3p2d1f pattern {62111/411/11/1}
 Group   2 Type F   : 11s6p2d1f contracted to 5s3p2d1f pattern {62111/411/11/1}
 Group   3 Type O   : 11s6p2d1f contracted to 5s3p2d1f pattern {62111/411/11/1}
 Group   4 Type H   : 5s1p contracted to 3s1p pattern {311/1}

Atom   0C    basis set group =>   1
Atom   1C    basis set group =>   1
Atom   2C    basis set group =>   1
Atom   3C    basis set group =>   1
Atom   4C    basis set group =>   1
Atom   5C    basis set group =>   1
Atom   6C    basis set group =>   1
Atom   7C    basis set group =>   1
Atom   8F    basis set group =>   2
Atom   9F    basis set group =>   2
Atom  10F    basis set group =>   2
Atom  11F    basis set group =>   2
Atom  12F    basis set group =>   2
Atom  13F    basis set group =>   2
Atom  14F    basis set group =>   2
Atom  15F    basis set group =>   2
Atom  16F    basis set group =>   2
Atom  17F    basis set group =>   2
Atom  18F    basis set group =>   2
Atom  19F    basis set group =>   2
Atom  20F    basis set group =>   2
Atom  21F    basis set group =>   2
Atom  22F    basis set group =>   2
Atom  23O    basis set group =>   3
Atom  24O    basis set group =>   3
Atom  25O    basis set group =>   3
Atom  26H    basis set group =>   4
Atom  27H    basis set group =>   4
Atom  28H    basis set group =>   4
Atom  29O    basis set group =>   3
Atom  30H    basis set group =>   4
---------------------------------
AUXILIARY/J BASIS SET INFORMATION
---------------------------------
There are 4 groups of distinct atoms

 Group   1 Type C   : 12s5p4d2f1g contracted to 6s4p3d1f1g pattern {711111/2111/211/2/1}
 Group   2 Type F   : 12s5p4d2f1g contracted to 6s4p3d1f1g pattern {711111/2111/211/2/1}
 Group   3 Type O   : 12s5p4d2f1g contracted to 6s4p3d1f1g pattern {711111/2111/211/2/1}
 Group   4 Type H   : 5s2p1d contracted to 3s1p1d pattern {311/2/1}

Atom   0C    basis set group =>   1
Atom   1C    basis set group =>   1
Atom   2C    basis set group =>   1
Atom   3C    basis set group =>   1
Atom   4C    basis set group =>   1
Atom   5C    basis set group =>   1
Atom   6C    basis set group =>   1
Atom   7C    basis set group =>   1
Atom   8F    basis set group =>   2
Atom   9F    basis set group =>   2
Atom  10F    basis set group =>   2
Atom  11F    basis set group =>   2
Atom  12F    basis set group =>   2
Atom  13F    basis set group =>   2
Atom  14F    basis set group =>   2
Atom  15F    basis set group =>   2
Atom  16F    basis set group =>   2
Atom  17F    basis set group =>   2
Atom  18F    basis set group =>   2
Atom  19F    basis set group =>   2
Atom  20F    basis set group =>   2
Atom  21F    basis set group =>   2
Atom  22F    basis set group =>   2
Atom  23O    basis set group =>   3
Atom  24O    basis set group =>   3
Atom  25O    basis set group =>   3
Atom  26H    basis set group =>   4
Atom  27H    basis set group =>   4
Atom  28H    basis set group =>   4
Atom  29O    basis set group =>   3
Atom  30H    basis set group =>   4


           ************************************************************
           *        Program running with 20 parallel MPI-processes    *
           *              working on a common directory               *
           ************************************************************
------------------------------------------------------------------------------
                             ORCA STARTUP CALCULATIONS
                           -- RI-GTO INTEGRALS CHOSEN --
------------------------------------------------------------------------------
------------------------------------------------------------------------------
                   ___                                                        
                  /   \      - P O W E R E D   B Y -                         
                 /     \                                                     
                 |  |  |   _    _      __       _____    __    __             
                 |  |  |  | |  | |    /  \     |  _  \  |  |  /  |          
                  \  \/   | |  | |   /    \    | | | |  |  | /  /          
                 / \  \   | |__| |  /  /\  \   | |_| |  |  |/  /          
                |  |  |   |  __  | /  /__\  \  |    /   |      \           
                |  |  |   | |  | | |   __   |  |    \   |  |\   \          
                \     /   | |  | | |  |  |  |  | |\  \  |  | \   \       
                 \___/    |_|  |_| |__|  |__|  |_| \__\ |__|  \__/        
                                                                              
                      - O R C A' S   B I G   F R I E N D -                    
                                      &                                       
                       - I N T E G R A L  F E E D E R -                       
                                                                              
 v1 FN, 2020, v2 2021, v3 2022-2024                                           
------------------------------------------------------------------------------


----------------------
SHARK INTEGRAL PACKAGE
----------------------

Number of atoms                             ...     31
Number of basis functions                   ...    861
Number of shells                            ...    313
Maximum angular momentum                    ...      3
Integral batch strategy                     ... SHARK/LIBINT Hybrid
RI-J (if used) integral strategy            ... SPLIT-RIJ (Revised 2003 algorithm where possible)
Printlevel                                  ...      1
Contraction scheme used                     ... SEGMENTED contraction
Prescreening option                         ... SCHWARTZ
   Thresh                                   ... 2.500e-11
   Tcut                                     ... 2.500e-12
   Tpresel                                  ... 2.500e-12 
Coulomb Range Separation                    ... NOT USED
Exchange Range Separation                   ... NOT USED
Multipole approximations                    ... NOT USED
Finite Nucleus Model                        ... NOT USED
CABS basis                                  ... NOT available
Auxiliary Coulomb fitting basis             ... AVAILABLE
   # of basis functions in Aux-J            ...   1367
   # of shells in Aux-J                     ...    425
   Maximum angular momentum in Aux-J        ...      4
Auxiliary J/K fitting basis                 ... NOT available
Auxiliary Correlation fitting basis         ... NOT available
Auxiliary 'external' fitting basis          ... NOT available

Checking pre-screening integrals            ... done (  0.0 sec) Dimension = 313
Check shell pair data                       ... done (  0.0 sec)
Shell pair information
Shell pair cut-off parameter TPreSel        ...   2.5e-12
Total number of shell pairs                 ...     49141
Shell pairs after pre-screening             ...     28589
Total number of primitive shell pairs       ...    159936
Primitive shell pairs kept                  ...     59151
          la=0 lb=0:   5803 shell pairs
          la=1 lb=0:   7992 shell pairs
          la=1 lb=1:   2676 shell pairs
          la=2 lb=0:   4174 shell pairs
          la=2 lb=1:   2932 shell pairs
          la=2 lb=2:    792 shell pairs
          la=3 lb=0:   1912 shell pairs
          la=3 lb=1:   1409 shell pairs
          la=3 lb=2:    725 shell pairs
          la=3 lb=3:    174 shell pairs

Calculating one electron integrals          ... done (  0.0 sec)
Calculating RI/J V-Matrix + Cholesky decomp.... done (  0.1 sec)
Calculating Nuclear repulsion               ... done (  0.0 sec) ENN=   3316.564952746167 Eh

Diagonalization of the overlap matrix:
Smallest eigenvalue                        ... 5.254e-05
Time for diagonalization                   ...    0.182 sec
Threshold for overlap eigenvalues          ... 1.000e-07
Number of eigenvalues below threshold      ... 0
Time for construction of square roots      ...    0.080 sec
Total time needed                          ...    0.269 sec

-------------------
DFT GRID GENERATION
-------------------

General Integration Accuracy     IntAcc      ... 4.388
Radial Grid Type                 RadialGrid  ... OptM3 with GC (2021)
Angular Grid (max. ang.)         AngularGrid ... 4 (Lebedev-302)
Angular grid pruning method      GridPruning ... 4 (adaptive)
Weight generation scheme         WeightScheme... mBecke (2022)
Basis function cutoff            BFCut       ... 1.0000e-11
Integration weight cutoff        WCut        ... 1.0000e-14
Partially contracted basis set               ... off
Rotationally invariant grid construction     ... off
Angular grids for H and He will be reduced by one unit

Total number of grid points                  ...   176471
Total number of batches                      ...     2770
Average number of points per batch           ...       63
Average number of grid points per atom       ...     5693

--------------------
COSX GRID GENERATION
--------------------

GRIDX 1
-------
General Integration Accuracy     IntAcc      ... 3.816
Radial Grid Type                 RadialGrid  ... OptM3 with GC (2021)
Angular Grid (max. ang.)         AngularGrid ... 1 (Lebedev-50)
Angular grid pruning method      GridPruning ... 4 (adaptive)
Weight generation scheme         WeightScheme... mBecke (2022)
Basis function cutoff            BFCut       ... 1.0000e-11
Integration weight cutoff        WCut        ... 1.0000e-14
Partially contracted basis set               ... on
Rotationally invariant grid construction     ... off
Angular grids for H and He will be reduced by one unit

Total number of grid points                  ...    22254
Total number of batches                      ...      187
Average number of points per batch           ...      119
Average number of grid points per atom       ...      718
UseSFitting                                  ... on

GRIDX 2
-------
General Integration Accuracy     IntAcc      ... 4.020
Radial Grid Type                 RadialGrid  ... OptM3 with GC (2021)
Angular Grid (max. ang.)         AngularGrid ... 2 (Lebedev-110)
Angular grid pruning method      GridPruning ... 4 (adaptive)
Weight generation scheme         WeightScheme... mBecke (2022)
Basis function cutoff            BFCut       ... 1.0000e-11
Integration weight cutoff        WCut        ... 1.0000e-14
Partially contracted basis set               ... on
Rotationally invariant grid construction     ... off
Angular grids for H and He will be reduced by one unit

Total number of grid points                  ...    51512
Total number of batches                      ...      417
Average number of points per batch           ...      123
Average number of grid points per atom       ...     1662
UseSFitting                                  ... on

GRIDX 3
-------
General Integration Accuracy     IntAcc      ... 4.338
Radial Grid Type                 RadialGrid  ... OptM3 with GC (2021)
Angular Grid (max. ang.)         AngularGrid ... 3 (Lebedev-194)
Angular grid pruning method      GridPruning ... 4 (adaptive)
Weight generation scheme         WeightScheme... mBecke (2022)
Basis function cutoff            BFCut       ... 1.0000e-11
Integration weight cutoff        WCut        ... 1.0000e-14
Partially contracted basis set               ... on
Rotationally invariant grid construction     ... off
Angular grids for H and He will be reduced by one unit

Total number of grid points                  ...   113810
Total number of batches                      ...      904
Average number of points per batch           ...      125
Average number of grid points per atom       ...     3671
UseSFitting                                  ... on
Initializing property integral containers    ... done (  0.0 sec)

SHARK setup successfully completed in   3.8 seconds

Maximum memory used throughout the entire STARTUP-calculation: 69.6 MB


           ************************************************************
           *        Program running with 20 parallel MPI-processes    *
           *              working on a common directory               *
           ************************************************************
-------------------------------------------------------------------------------
                                 ORCA GUESS
                   Start orbitals & Density for SCF / CASSCF
-------------------------------------------------------------------------------

------------
SCF SETTINGS
------------
Hamiltonian:
 Density Functional     Method          .... DFT(GTOs)
  Functional kind                       .... Exchange
  Functional name                       .... Re-regularized SCAN exchange by Furness et al
  Functional family                     .... MGGA
  Functional refs                              
    [ 0] J. W. Furness, A. D. Kaplan, J. Ning, J. P. Perdew, and J. Sun.,  J. Phys. Chem. Lett. 11, 8208-8215 (2020), doi: 10.1021/acs.jpclett.0c02405
    [ 1] J. W. Furness, A. D. Kaplan, J. Ning, J. P. Perdew, and J. Sun.,  J. Phys. Chem. Lett. 11, 9248-9248 (2020), doi: 10.1021/acs.jpclett.0c03077
  Functional external parameters        .... 6
    Parameter  0 _c1        =  6.670000e-01 : c1 parameter        
    Parameter  1 _c2        =  8.000000e-01 : c2 parameter        
    Parameter  2 _d         =  1.240000e+00 : d parameter         
    Parameter  3 _k1        =  6.500000e-02 : k1 parameter        
    Parameter  4 _eta       =  1.000000e-03 : eta parameter       
    Parameter  5 _dp2       =  3.610000e-01 : dp2 parameter       
  Functional kind                       .... Correlation
  Functional name                       .... Re-regularized SCAN correlation by Furness et al
  Functional family                     .... MGGA
  Functional refs                              
    [ 0] J. W. Furness, A. D. Kaplan, J. Ning, J. P. Perdew, and J. Sun.,  J. Phys. Chem. Lett. 11, 8208-8215 (2020), doi: 10.1021/acs.jpclett.0c02405
    [ 1] J. W. Furness, A. D. Kaplan, J. Ning, J. P. Perdew, and J. Sun.,  J. Phys. Chem. Lett. 11, 9248-9248 (2020), doi: 10.1021/acs.jpclett.0c03077
  Functional external parameters        .... 1
    Parameter  0 _eta       =  1.000000e-03 : Regularization parameter
 Gradients option       PostSCFGGA      .... off
 Hybrid DFT is turned on
   Fraction HF Exchange ScalHFX         ....  0.100000
   Scaling of DF-GGA-X  ScalDFX         ....  0.900000
   Scaling of DF-GGA-C  ScalDFC         ....  1.000000
   Scaling of DF-LDA-C  ScalLDAC        ....  1.000000
   Perturbative correction              ....  0.000000
   NL short-range parameter             .... 11.900000
 RI-approximation to the Coulomb term is turned on
   Number of AuxJ basis functions       .... 1367
   RIJ-COSX (HFX calculated with COS-X)).... on


General Settings:
 Integral files         IntName         .... rf_mecn_2H2O_freq_r2s_con_01
 Hartree-Fock type      HFTyp           .... RHF
 Total Charge           Charge          ....   -1
 Multiplicity           Mult            ....    1
 Number of Electrons    NEL             ....  220
 Basis Dimension        Dim             ....  861
 Nuclear Repulsion      ENuc            ....   3316.5649527462 Eh

Convergence Acceleration:
 AO-DIIS                CNVDIIS         .... on
   Start iteration      DIISMaxIt       ....     0
   Startup error        DIISStart       ....  0.200000
   # of expansion vecs  DIISMaxEq       ....     5
   Bias factor          DIISBfac        ....   1.050
   Max. coefficient     DIISMaxC        ....  10.000
 MO-DIIS                CNVKDIIS        .... off
 Trust-Rad. Augm. Hess. CNVTRAH         .... auto
   Auto Start mean grad. ratio tolernc. ....  1.125000
   Auto Start start iteration           ....    50
   Auto Start num. interpolation iter.  ....    10
   Max. Number of Micro iterations      ....    24
   Max. Number of Macro iterations      .... Maxiter - #DIIS iter
   Number of Davidson start vectors     ....     2
   Converg. threshold    (grad. norm)   ....   1.000e-05
   Grad. Scal. Fac. for Micro threshold ....   0.100
   Minimum threshold for Micro iter.    ....   1.000e-02
   NR start threshold (gradient norm)   ....   1.000e-04
   Initial trust radius                 ....   0.400
   Minimum AH scaling param. (alpha)    ....   1.000
   Maximum AH scaling param. (alpha)    .... 1000.000
   Quad. conv. algorithm                .... NR
   White noise on init. David. guess    .... on
   Maximum white noise                  ....   0.010
   Pseudo random numbers                .... off
   Inactive MOs                         .... canonical
   Orbital update algorithm             .... Taylor
   Preconditioner                       .... Diag
   Full preconditioner red. dimension   ....   250
 SOSCF                  CNVSOSCF        .... on
   Start iteration      SOSCFMaxIt      ....   150
   Startup grad/error   SOSCFStart      ....  0.001000
   Hessian update       SOSCFHessUp     .... L-BFGS
 Level Shifting         CNVShift        .... on
   Level shift para.    LevelShift      ....    0.2500
   Turn off err/grad.   ShiftErr        ....    0.0000
 Zerner damping         CNVZerner       .... off
 Static damping         CNVDamp         .... on
   Fraction old density DampFac         ....    0.8500
   Max. Damping (<1)    DampMax         ....    0.9800
   Min. Damping (>=0)   DampMin         ....    0.0000
   Turn off err/grad.   DampErr         ....    0.0300

SCF Procedure:
 Maximum # iterations   MaxIter         ....  1500
 SCF integral mode      SCFMode         .... Direct
   Integral package                     .... SHARK and LIBINT hybrid scheme
 Reset frequency        DirectResetFreq ....    20
 Integral Threshold     Thresh          ....  2.500e-11 Eh
 Primitive CutOff       TCut            ....  2.500e-12 Eh

Convergence Tolerance:
 Convergence Check Mode ConvCheckMode   .... Total+1el-Energy
 Convergence forced     ConvForced      .... 0
 Energy Change          TolE            ....  1.000e-08 Eh
 1-El. energy change                    ....  1.000e-05 Eh
 Orbital Gradient       TolG            ....  1.000e-05
 Orbital Rotation angle TolX            ....  1.000e-05
 DIIS Error             TolErr          ....  5.000e-07

------------------------------
INITIAL GUESS: MODEL POTENTIAL
------------------------------
Loading Hartree-Fock densities                     ... done
Calculating cut-offs                               ... done
Initializing the effective Hamiltonian             ... done
Setting up the integral package (SHARK)            ... done
Starting the Coulomb interaction                   ... done (   0.2 sec)
Making the grid                                    ... done (   0.5 sec)
Mapping shells                                     ... done
Starting the XC term evaluation                    ... done (   0.2 sec)
  promolecular density results
     # of electrons  =    218.994111130
     EX              =   -224.768662362
     EC              =     -7.662064463
     EX+EC           =   -232.430726825
Transforming the Hamiltonian                       ... done (   0.1 sec)
Diagonalizing the Hamiltonian                      ... done (   0.2 sec)
Back transforming the eigenvectors                 ... done (   0.0 sec)
Now organizing SCF variables                       ... done
                      ------------------
                      INITIAL GUESS DONE (   1.3 sec)
                      ------------------
             **** ENERGY FILE WAS UPDATED (rf_mecn_2H2O_freq_r2s_con_01.en.tmp) ****
Finished Guess after   2.0 sec
Maximum memory used throughout the entire GUESS-calculation: 58.8 MB


           ************************************************************
           *        Program running with 20 parallel MPI-processes    *
           *              working on a common directory               *
           ************************************************************

-------------------------------------------------------------------------------------------
                                      ORCA LEAN-SCF
                              memory conserving SCF solver
-------------------------------------------------------------------------------------------

--------------------
CPCM SOLVATION MODEL
--------------------
CPCM parameters:
  Epsilon                                         ...      35.6880
  Refrac                                          ...       1.3442
  Rsolv                                           ...       1.3000
  Surface type                                    ... GAUSSIAN VDW
  Discretization scheme                           ... Constant charge density
    Threshold for H atoms                         ...       5.0000 (charges/Ang^2)
    Threshold for non-H atoms                     ...       5.0000 (charges/Ang^2)
  Epsilon function type                           ...         CPCM
Solvent:                                          ... ACETONITRILE
SMD-CDS solvent descriptors:
  Soln                                            ...       1.3442
  Soln25                                          ...       1.3416
  Sola                                            ...       0.0700
  Solb                                            ...       0.3200
  Solg                                            ...      41.2500
  Solc                                            ...       0.0000
  Solh                                            ...       0.0000
Radii:
  Scheme                                          ... Element-dependent radii
  Radius for C  used is    3.4960 Bohr (=   1.8500 Ang.)
  Radius for F  used is    3.2692 Bohr (=   1.7300 Ang.)
  Radius for O  used is    4.0969 Bohr (=   2.1680 Ang.)
  Radius for H  used is    2.2677 Bohr (=   1.2000 Ang.)
Calculating surface                               ...        done! (  0.0s)
Cavity surface points                             ...         2586
Cavity Volume                                     ...    2590.4304
Cavity Surface-area                               ...    1316.6297
Calculating surface distance matrix               ...        done! (  0.1s)
Performing Cholesky decomposition & store         ...        done! (  0.1s)
Overall time for CPCM initialization              ...                 0.2s

----------------------------------------D-I-I-S--------------------------------------------
Iteration    Energy (Eh)           Delta-E    RMSDP     MaxDP     DIISErr   Damp  Time(sec)
-------------------------------------------------------------------------------------------
               ***  Starting incremental Fock matrix formation  ***
    1    -2105.2709837382130900     0.00e+00  4.65e-04  3.62e-02  3.29e-01  0.850   8.3
Warning: op=0 Small HOMO/LUMO gap (   0.067) - skipping pre-diagonalization
         Will do a full diagonalization
    2    -2105.4543257208692921    -1.83e-01  5.32e-04  7.89e-02  2.34e-01  0.850   5.1
                               ***Turning on AO-DIIS***
    3    -2105.5572249502170052    -1.03e-01  2.76e-04  4.45e-02  1.50e-01  0.850   4.6
    4    -2105.6199100083554185    -6.27e-02  1.63e-04  2.03e-02  1.13e-01  0.850   4.5
    5    -2105.6646269038897117    -4.47e-02  1.11e-04  8.21e-03  9.22e-02  0.850   4.4
    6    -2105.6999018232531853    -3.53e-02  8.84e-05  7.84e-03  7.79e-02  0.850   4.2
    7    -2105.7290215253956376    -2.91e-02  7.73e-05  7.10e-03  6.66e-02  0.850   4.1
    8    -2105.7534193021488136    -2.44e-02  6.72e-05  6.20e-03  5.66e-02  0.850   4.0
    9    -2105.7737215464198925    -2.03e-02  5.72e-05  5.29e-03  4.73e-02  0.850   4.0
   10    -2105.7905633166178632    -1.68e-02  4.82e-05  4.49e-03  3.92e-02  0.850   4.0
   11    -2105.8045777050751894    -1.40e-02  4.06e-05  3.83e-03  3.27e-02  0.850   3.8
   12    -2105.8162923910163045    -1.17e-02  3.44e-05  3.28e-03  2.74e-02  0.850   3.9
   13    -2105.8261196669404853    -9.83e-03  1.95e-04  1.88e-02  2.30e-02  0.000   3.8
   14    -2105.8797653859405727    -5.36e-02  1.05e-05  1.26e-03  1.97e-03  0.000   4.3
                              *** Initializing SOSCF ***
---------------------------------------S-O-S-C-F--------------------------------------
Iteration    Energy (Eh)           Delta-E    RMSDP     MaxDP     MaxGrad    Time(sec)
--------------------------------------------------------------------------------------
   15    -2105.8797875662717161    -2.22e-05  6.29e-06  1.15e-03  4.32e-04     4.1
               *** Restarting incremental Fock matrix formation ***
   16    -2105.8798012137090154    -1.36e-05  4.29e-06  3.68e-04  5.88e-05     8.1
   17    -2105.8798009964207267     2.17e-07  1.38e-06  1.84e-04  8.54e-05     4.4
   18    -2105.8798014528697422    -4.56e-07  5.44e-07  9.00e-05  7.38e-06     3.7
   19    -2105.8798014791759670    -2.63e-08  2.56e-07  3.58e-05  1.02e-05     3.4
   20    -2105.8798014570525083     2.21e-08  2.08e-07  2.83e-05  1.90e-06     3.2
                  *** Gradient check signals convergence ***

               *****************************************************
               *                     SUCCESS                       *
               *           SCF CONVERGED AFTER  20 CYCLES          *
               *****************************************************

Recomputing exchange energy using gridx3       ... done (   10.588 sec)
Old exchange energy                            :    -22.715592470 Eh
New exchange energy                            :    -22.715600521 Eh
Exchange energy change after final integration :     -0.000008051 Eh
Total energy after final integration           :  -2105.879809508 Eh

SMD CDS free energy correction energy :                 2.69036     Kcal/mol
Total Energy after SMD CDS correction =             -2105.875522143 Eh
             **** ENERGY FILE WAS UPDATED (rf_mecn_2H2O_freq_r2s_con_01.en.tmp) ****

----------------
TOTAL SCF ENERGY
----------------

Total Energy       :      -2105.87552214276911 Eh          -57303.78623 eV

Components:
Nuclear Repulsion  :       3316.56495274616691 Eh           90248.32050 eV
Electronic Energy  :      -5422.36542061303771 Eh         -147550.06440 eV
One Electron Energy:      -9556.97898238179732 Eh         -260058.61924 eV
Two Electron Energy:       4134.61356176875961 Eh          112508.55484 eV
CPCM Dielectric    :         -0.07933359018184 Eh              -2.15878 eV
SMD CDS (Gcds)     :          0.00428736565121 Eh               0.11667 eV

Virial components:
Potential Energy   :      -4204.72880191394688 Eh         -114416.48752 eV
Kinetic Energy     :       2098.85327977117731 Eh           57112.70130 eV
Virial Ratio       :          2.00334575191095

DFT components:
N(Alpha)           :      109.999974750879 electrons
N(Beta)            :      109.999974750879 electrons
N(Total)           :      219.999949501758 electrons
E(X)               :     -205.527451210859 Eh       
E(C)               :       -7.628144095967 Eh       
E(XC)              :     -213.155595306826 Eh       

CPCM Solvation Model Properties:
Surface-charge          :          0.99105457461530
Corrected charge        :          1.00000000000000
Outlying charge corr.   :          0.00000404947893 Eh               0.00011 eV
Free-energy (cav+disp)  :          0.00428736565121 Eh               0.11667 eV

---------------
SCF CONVERGENCE
---------------

  Last Energy change         ...   -2.2123e-08  Tolerance :   1.0000e-08
  Last MAX-Density change    ...    2.8297e-05  Tolerance :   1.0000e-07
  Last RMS-Density change    ...    2.0777e-07  Tolerance :   5.0000e-09
  Last DIIS Error            ...    4.3187e-04  Tolerance :   5.0000e-07
  Last Orbital Gradient      ...    1.9024e-06  Tolerance :   1.0000e-05
  Last Orbital Rotation      ...    6.0215e-06  Tolerance :   1.0000e-05


----------------
ORBITAL ENERGIES
----------------

  NO   OCC          E(Eh)            E(eV) 
   0   2.0000     -24.732328      -673.0009 
   1   2.0000     -24.732058      -672.9935 
   2   2.0000     -24.731975      -672.9913 
   3   2.0000     -24.731935      -672.9902 
   4   2.0000     -24.731308      -672.9731 
   5   2.0000     -24.730613      -672.9542 
   6   2.0000     -24.730513      -672.9515 
   7   2.0000     -24.729908      -672.9350 
   8   2.0000     -24.729748      -672.9307 
   9   2.0000     -24.725965      -672.8277 
  10   2.0000     -24.725169      -672.8061 
  11   2.0000     -24.716892      -672.5808 
  12   2.0000     -24.716133      -672.5602 
  13   2.0000     -24.697065      -672.0413 
  14   2.0000     -24.695118      -671.9883 
  15   2.0000     -19.076270      -519.0917 
  16   2.0000     -19.075270      -519.0645 
  17   2.0000     -19.072768      -518.9964 
  18   2.0000     -19.072229      -518.9817 
  19   2.0000     -10.440146      -284.0908 
  20   2.0000     -10.387228      -282.6508 
  21   2.0000     -10.385386      -282.6007 
  22   2.0000     -10.384845      -282.5860 
  23   2.0000     -10.379282      -282.4346 
  24   2.0000     -10.366426      -282.0848 
  25   2.0000     -10.335353      -281.2393 
  26   2.0000     -10.255557      -279.0679 
  27   2.0000      -1.361792       -37.0562 
  28   2.0000      -1.339276       -36.4436 
  29   2.0000      -1.324320       -36.0366 
  30   2.0000      -1.315135       -35.7866 
  31   2.0000      -1.312704       -35.7205 
  32   2.0000      -1.303727       -35.4762 
  33   2.0000      -1.280867       -34.8542 
  34   2.0000      -1.273818       -34.6624 
  35   2.0000      -1.267538       -34.4915 
  36   2.0000      -1.266746       -34.4699 
  37   2.0000      -1.260844       -34.3093 
  38   2.0000      -1.256892       -34.2018 
  39   2.0000      -1.254216       -34.1290 
  40   2.0000      -1.245068       -33.8800 
  41   2.0000      -1.222224       -33.2584 
  42   2.0000      -1.053145       -28.6575 
  43   2.0000      -0.979584       -26.6558 
  44   2.0000      -0.976343       -26.5676 
  45   2.0000      -0.964834       -26.2545 
  46   2.0000      -0.846434       -23.0326 
  47   2.0000      -0.825271       -22.4568 
  48   2.0000      -0.795964       -21.6593 
  49   2.0000      -0.757732       -20.6189 
  50   2.0000      -0.714224       -19.4350 
  51   2.0000      -0.683389       -18.5960 
  52   2.0000      -0.667215       -18.1558 
  53   2.0000      -0.642667       -17.4879 
  54   2.0000      -0.638059       -17.3625 
  55   2.0000      -0.629590       -17.1320 
  56   2.0000      -0.622343       -16.9348 
  57   2.0000      -0.618226       -16.8228 
  58   2.0000      -0.616778       -16.7834 
  59   2.0000      -0.604281       -16.4433 
  60   2.0000      -0.600250       -16.3336 
  61   2.0000      -0.596329       -16.2269 
  62   2.0000      -0.588753       -16.0208 
  63   2.0000      -0.578306       -15.7365 
  64   2.0000      -0.575976       -15.6731 
  65   2.0000      -0.570183       -15.5155 
  66   2.0000      -0.565416       -15.3858 
  67   2.0000      -0.549452       -14.9514 
  68   2.0000      -0.505988       -13.7686 
  69   2.0000      -0.503968       -13.7137 
  70   2.0000      -0.500927       -13.6309 
  71   2.0000      -0.495696       -13.4886 
  72   2.0000      -0.491812       -13.3829 
  73   2.0000      -0.488088       -13.2815 
  74   2.0000      -0.486982       -13.2514 
  75   2.0000      -0.484434       -13.1821 
  76   2.0000      -0.481401       -13.0996 
  77   2.0000      -0.474037       -12.8992 
  78   2.0000      -0.470371       -12.7994 
  79   2.0000      -0.468504       -12.7487 
  80   2.0000      -0.466021       -12.6811 
  81   2.0000      -0.460360       -12.5270 
  82   2.0000      -0.458070       -12.4647 
  83   2.0000      -0.454257       -12.3610 
  84   2.0000      -0.449385       -12.2284 
  85   2.0000      -0.448783       -12.2120 
  86   2.0000      -0.439826       -11.9683 
  87   2.0000      -0.438438       -11.9305 
  88   2.0000      -0.436268       -11.8715 
  89   2.0000      -0.432543       -11.7701 
  90   2.0000      -0.430946       -11.7266 
  91   2.0000      -0.429044       -11.6749 
  92   2.0000      -0.426811       -11.6141 
  93   2.0000      -0.424462       -11.5502 
  94   2.0000      -0.423118       -11.5136 
  95   2.0000      -0.417435       -11.3590 
  96   2.0000      -0.412886       -11.2352 
  97   2.0000      -0.408958       -11.1283 
  98   2.0000      -0.406664       -11.0659 
  99   2.0000      -0.395302       -10.7567 
 100   2.0000      -0.391292       -10.6476 
 101   2.0000      -0.361785        -9.8447 
 102   2.0000      -0.348555        -9.4847 
 103   2.0000      -0.345361        -9.3978 
 104   2.0000      -0.328584        -8.9412 
 105   2.0000      -0.274996        -7.4830 
 106   2.0000      -0.272073        -7.4035 
 107   2.0000      -0.261795        -7.1238 
 108   2.0000      -0.248273        -6.7558 
 109   2.0000      -0.246271        -6.7014 
 110   0.0000      -0.020403        -0.5552 
 111   0.0000      -0.002972        -0.0809 
 112   0.0000       0.013434         0.3656 
 113   0.0000       0.038886         1.0581 
 114   0.0000       0.050841         1.3835 
 115   0.0000       0.076608         2.0846 
 116   0.0000       0.089090         2.4243 
 117   0.0000       0.094919         2.5829 
 118   0.0000       0.099731         2.7138 
 119   0.0000       0.115032         3.1302 
 120   0.0000       0.131444         3.5768 
*Only the first 10 virtual orbitals were printed.

                    ********************************
                    * MULLIKEN POPULATION ANALYSIS *
                    ********************************

-----------------------
MULLIKEN ATOMIC CHARGES
-----------------------
   0 C :    0.471126
   1 C :    0.331126
   2 C :    0.299361
   3 C :    0.324099
   4 C :    0.333484
   5 C :    0.276774
   6 C :    0.322628
   7 C :    0.336442
   8 F :   -0.156194
   9 F :   -0.153850
  10 F :   -0.153361
  11 F :   -0.163048
  12 F :   -0.159539
  13 F :   -0.163627
  14 F :   -0.163336
  15 F :   -0.164072
  16 F :   -0.164617
  17 F :   -0.167616
  18 F :   -0.171039
  19 F :   -0.177678
  20 F :   -0.176155
  21 F :   -0.200366
  22 F :   -0.205562
  23 O :   -0.524794
  24 O :   -0.537165
  25 O :   -0.741540
  26 H :    0.337324
  27 H :    0.355825
  28 H :    0.355380
  29 O :   -0.737872
  30 H :    0.337863
Sum of atomic charges:   -1.0000000

--------------------------------
MULLIKEN REDUCED ORBITAL CHARGES
--------------------------------
  0 C s       :     3.020692  s :     3.020692
      pz      :     0.642905  p :     2.108988
      px      :     0.691491
      py      :     0.774592
      dz2     :     0.075551  d :     0.358559
      dxz     :     0.071300
      dyz     :     0.077421
      dx2y2   :     0.068618
      dxy     :     0.065668
      f0      :     0.008001  f :     0.040635
      f+1     :     0.006358
      f-1     :     0.004355
      f+2     :     0.004526
      f-2     :     0.007691
      f+3     :     0.003673
      f-3     :     0.006031

  1 C s       :     3.101009  s :     3.101009
      pz      :     0.618700  p :     2.250415
      px      :     0.730780
      py      :     0.900935
      dz2     :     0.079263  d :     0.289322
      dxz     :     0.057034
      dyz     :     0.058541
      dx2y2   :     0.037030
      dxy     :     0.057455
      f0      :     0.005950  f :     0.028128
      f+1     :     0.004548
      f-1     :     0.002663
      f+2     :     0.005571
      f-2     :     0.004756
      f+3     :     0.002401
      f-3     :     0.002238

  2 C s       :     3.141450  s :     3.141450
      pz      :     0.596459  p :     2.237965
      px      :     0.712753
      py      :     0.928754
      dz2     :     0.075358  d :     0.293182
      dxz     :     0.060055
      dyz     :     0.066187
      dx2y2   :     0.031792
      dxy     :     0.059790
      f0      :     0.005246  f :     0.028042
      f+1     :     0.005934
      f-1     :     0.003544
      f+2     :     0.003976
      f-2     :     0.004580
      f+3     :     0.002329
      f-3     :     0.002433

  3 C s       :     3.135036  s :     3.135036
      pz      :     0.653460  p :     2.219934
      px      :     0.683022
      py      :     0.883453
      dz2     :     0.064743  d :     0.292897
      dxz     :     0.072363
      dyz     :     0.053830
      dx2y2   :     0.041126
      dxy     :     0.060835
      f0      :     0.004680  f :     0.028035
      f+1     :     0.006949
      f-1     :     0.003100
      f+2     :     0.003459
      f-2     :     0.003254
      f+3     :     0.003188
      f-3     :     0.003405

  4 C s       :     3.136212  s :     3.136212
      pz      :     0.653750  p :     2.212614
      px      :     0.645921
      py      :     0.912943
      dz2     :     0.049912  d :     0.289775
      dxz     :     0.078695
      dyz     :     0.059974
      dx2y2   :     0.040231
      dxy     :     0.060963
      f0      :     0.005370  f :     0.027915
      f+1     :     0.005527
      f-1     :     0.004068
      f+2     :     0.003934
      f-2     :     0.001877
      f+3     :     0.002236
      f-3     :     0.004902

  5 C s       :     3.146490  s :     3.146490
      pz      :     0.727059  p :     2.264893
      px      :     0.619718
      py      :     0.918116
      dz2     :     0.055960  d :     0.284041
      dxz     :     0.067601
      dyz     :     0.046431
      dx2y2   :     0.052836
      dxy     :     0.061212
      f0      :     0.005546  f :     0.027802
      f+1     :     0.003817
      f-1     :     0.003129
      f+2     :     0.005673
      f-2     :     0.002296
      f+3     :     0.002444
      f-3     :     0.004898

  6 C s       :     3.117872  s :     3.117872
      pz      :     0.713926  p :     2.271715
      px      :     0.578721
      py      :     0.979068
      dz2     :     0.050042  d :     0.261114
      dxz     :     0.053794
      dyz     :     0.046808
      dx2y2   :     0.052027
      dxy     :     0.058443
      f0      :     0.003698  f :     0.026671
      f+1     :     0.005373
      f-1     :     0.001971
      f+2     :     0.004356
      f-2     :     0.004223
      f+3     :     0.002921
      f-3     :     0.004129

  7 C s       :     3.020281  s :     3.020281
      pz      :     0.808714  p :     2.357037
      px      :     0.675556
      py      :     0.872767
      dz2     :     0.010668  d :     0.261316
      dxz     :     0.074794
      dyz     :     0.014921
      dx2y2   :     0.078434
      dxy     :     0.082498
      f0      :     0.002460  f :     0.024924
      f+1     :     0.002473
      f-1     :     0.001386
      f+2     :     0.002554
      f-2     :     0.003212
      f+3     :     0.008005
      f-3     :     0.004833

  8 F s       :     3.924683  s :     3.924683
      pz      :     1.697837  p :     5.213399
      px      :     1.642163
      py      :     1.873399
      dz2     :     0.003118  d :     0.017346
      dxz     :     0.006748
      dyz     :     0.001883
      dx2y2   :     0.002961
      dxy     :     0.002636
      f0      :     0.000088  f :     0.000767
      f+1     :     0.000205
      f-1     :     0.000028
      f+2     :     0.000191
      f-2     :     0.000127
      f+3     :     0.000060
      f-3     :     0.000066

  9 F s       :     3.923268  s :     3.923268
      pz      :     1.524160  p :     5.212262
      px      :     1.811230
      py      :     1.876873
      dz2     :     0.006485  d :     0.017537
      dxz     :     0.005473
      dyz     :     0.003703
      dx2y2   :     0.000829
      dxy     :     0.001046
      f0      :     0.000204  f :     0.000784
      f+1     :     0.000256
      f-1     :     0.000138
      f+2     :     0.000074
      f-2     :     0.000093
      f+3     :     0.000008
      f-3     :     0.000010

 10 F s       :     3.923102  s :     3.923102
      pz      :     1.888020  p :     5.212057
      px      :     1.744683
      py      :     1.579354
      dz2     :     0.002434  d :     0.017422
      dxz     :     0.001423
      dyz     :     0.002465
      dx2y2   :     0.004294
      dxy     :     0.006805
      f0      :     0.000067  f :     0.000781
      f+1     :     0.000061
      f-1     :     0.000106
      f+2     :     0.000020
      f-2     :     0.000104
      f+3     :     0.000242
      f-3     :     0.000181

 11 F s       :     3.928820  s :     3.928820
      pz      :     1.637212  p :     5.216275
      px      :     1.713078
      py      :     1.865985
      dz2     :     0.003874  d :     0.017230
      dxz     :     0.006193
      dyz     :     0.002974
      dx2y2   :     0.001921
      dxy     :     0.002269
      f0      :     0.000093  f :     0.000722
      f+1     :     0.000216
      f-1     :     0.000070
      f+2     :     0.000130
      f-2     :     0.000145
      f+3     :     0.000029
      f-3     :     0.000039

 12 F s       :     3.926663  s :     3.926663
      pz      :     1.620794  p :     5.214746
      px      :     1.740049
      py      :     1.853902
      dz2     :     0.004201  d :     0.017393
      dxz     :     0.005782
      dyz     :     0.003471
      dx2y2   :     0.001730
      dxy     :     0.002209
      f0      :     0.000102  f :     0.000738
      f+1     :     0.000208
      f-1     :     0.000097
      f+2     :     0.000115
      f-2     :     0.000155
      f+3     :     0.000028
      f-3     :     0.000032

 13 F s       :     3.928955  s :     3.928955
      pz      :     1.516406  p :     5.216618
      px      :     1.815764
      py      :     1.884448
      dz2     :     0.006578  d :     0.017331
      dxz     :     0.005091
      dyz     :     0.003823
      dx2y2   :     0.000795
      dxy     :     0.001044
      f0      :     0.000206  f :     0.000723
      f+1     :     0.000230
      f-1     :     0.000132
      f+2     :     0.000061
      f-2     :     0.000081
      f+3     :     0.000007
      f-3     :     0.000007

 14 F s       :     3.928813  s :     3.928813
      pz      :     1.705028  p :     5.216464
      px      :     1.620026
      py      :     1.891410
      dz2     :     0.002840  d :     0.017336
      dxz     :     0.006649
      dyz     :     0.001866
      dx2y2   :     0.003197
      dxy     :     0.002785
      f0      :     0.000080  f :     0.000723
      f+1     :     0.000188
      f-1     :     0.000020
      f+2     :     0.000189
      f-2     :     0.000118
      f+3     :     0.000063
      f-3     :     0.000066

 15 F s       :     3.928449  s :     3.928449
      pz      :     1.494229  p :     5.217577
      px      :     1.879738
      py      :     1.843610
      dz2     :     0.007359  d :     0.017320
      dxz     :     0.003364
      dyz     :     0.005292
      dx2y2   :     0.000672
      dxy     :     0.000634
      f0      :     0.000247  f :     0.000725
      f+1     :     0.000126
      f-1     :     0.000236
      f+2     :     0.000054
      f-2     :     0.000053
      f+3     :     0.000005
      f-3     :     0.000004

 16 F s       :     3.928557  s :     3.928557
      pz      :     1.832295  p :     5.218051
      px      :     1.509903
      py      :     1.875852
      dz2     :     0.002241  d :     0.017287
      dxz     :     0.004919
      dyz     :     0.000846
      dx2y2   :     0.005113
      dxy     :     0.004169
      f0      :     0.000078  f :     0.000722
      f+1     :     0.000119
      f-1     :     0.000013
      f+2     :     0.000149
      f-2     :     0.000076
      f+3     :     0.000139
      f-3     :     0.000148

 17 F s       :     3.927635  s :     3.927635
      pz      :     1.468599  p :     5.222049
      px      :     1.876272
      py      :     1.877177
      dz2     :     0.008001  d :     0.017210
      dxz     :     0.003686
      dyz     :     0.004613
      dx2y2   :     0.000495
      dxy     :     0.000416
      f0      :     0.000287  f :     0.000722
      f+1     :     0.000161
      f-1     :     0.000197
      f+2     :     0.000038
      f-2     :     0.000034
      f+3     :     0.000003
      f-3     :     0.000003

 18 F s       :     3.930551  s :     3.930551
      pz      :     1.877319  p :     5.222683
      px      :     1.444386
      py      :     1.900979
      dz2     :     0.002281  d :     0.017090
      dxz     :     0.003898
      dyz     :     0.000254
      dx2y2   :     0.006583
      dxy     :     0.004074
      f0      :     0.000065  f :     0.000715
      f+1     :     0.000134
      f-1     :     0.000011
      f+2     :     0.000120
      f-2     :     0.000013
      f+3     :     0.000215
      f-3     :     0.000156

 19 F s       :     3.926769  s :     3.926769
      pz      :     1.569978  p :     5.233323
      px      :     1.812657
      py      :     1.850689
      dz2     :     0.005163  d :     0.016878
      dxz     :     0.004728
      dyz     :     0.004272
      dx2y2   :     0.001334
      dxy     :     0.001381
      f0      :     0.000135  f :     0.000708
      f+1     :     0.000188
      f-1     :     0.000140
      f+2     :     0.000092
      f-2     :     0.000119
      f+3     :     0.000016
      f-3     :     0.000018

 20 F s       :     3.929740  s :     3.929740
      pz      :     1.878263  p :     5.228737
      px      :     1.454332
      py      :     1.896142
      dz2     :     0.002281  d :     0.016967
      dxz     :     0.003880
      dyz     :     0.000289
      dx2y2   :     0.006498
      dxy     :     0.004019
      f0      :     0.000066  f :     0.000711
      f+1     :     0.000134
      f-1     :     0.000010
      f+2     :     0.000111
      f-2     :     0.000020
      f+3     :     0.000214
      f-3     :     0.000156

 21 F s       :     3.925282  s :     3.925282
      pz      :     1.643276  p :     5.258134
      px      :     1.720642
      py      :     1.894216
      dz2     :     0.003463  d :     0.016260
      dxz     :     0.006121
      dyz     :     0.002619
      dx2y2   :     0.002109
      dxy     :     0.001947
      f0      :     0.000082  f :     0.000691
      f+1     :     0.000214
      f-1     :     0.000050
      f+2     :     0.000150
      f-2     :     0.000122
      f+3     :     0.000039
      f-3     :     0.000033

 22 F s       :     3.924267  s :     3.924267
      pz      :     1.837980  p :     5.264556
      px      :     1.528067
      py      :     1.898510
      dz2     :     0.001920  d :     0.016064
      dxz     :     0.004625
      dyz     :     0.000777
      dx2y2   :     0.005053
      dxy     :     0.003689
      f0      :     0.000068  f :     0.000674
      f+1     :     0.000106
      f-1     :     0.000004
      f+2     :     0.000148
      f-2     :     0.000063
      f+3     :     0.000157
      f-3     :     0.000129

 23 O s       :     3.845873  s :     3.845873
      pz      :     1.545660  p :     4.648908
      px      :     1.430123
      py      :     1.673124
      dz2     :     0.003355  d :     0.028173
      dxz     :     0.006433
      dyz     :     0.002808
      dx2y2   :     0.007042
      dxy     :     0.008535
      f0      :     0.000178  f :     0.001840
      f+1     :     0.000264
      f-1     :     0.000084
      f+2     :     0.000161
      f-2     :     0.000276
      f+3     :     0.000466
      f-3     :     0.000411

 24 O s       :     3.842465  s :     3.842465
      pz      :     1.567797  p :     4.665123
      px      :     1.358122
      py      :     1.739204
      dz2     :     0.002748  d :     0.027733
      dxz     :     0.007996
      dyz     :     0.001236
      dx2y2   :     0.007512
      dxy     :     0.008242
      f0      :     0.000208  f :     0.001844
      f+1     :     0.000239
      f-1     :     0.000045
      f+2     :     0.000278
      f-2     :     0.000120
      f+3     :     0.000483
      f-3     :     0.000470

 25 O s       :     3.808215  s :     3.808215
      pz      :     1.930169  p :     4.912571
      px      :     1.423265
      py      :     1.559137
      dz2     :     0.003543  d :     0.019537
      dxz     :     0.001169
      dyz     :     0.002101
      dx2y2   :     0.005763
      dxy     :     0.006960
      f0      :     0.000196  f :     0.001217
      f+1     :     0.000261
      f-1     :     0.000252
      f+2     :     0.000090
      f-2     :     0.000062
      f+3     :     0.000309
      f-3     :     0.000046

 26 H s       :     0.614846  s :     0.614846
      pz      :     0.016682  p :     0.047830
      px      :     0.013916
      py      :     0.017232

 27 H s       :     0.590730  s :     0.590730
      pz      :     0.015912  p :     0.053446
      px      :     0.025424
      py      :     0.012110

 28 H s       :     0.590350  s :     0.590350
      pz      :     0.014894  p :     0.054270
      px      :     0.025525
      py      :     0.013851

 29 O s       :     3.805429  s :     3.805429
      pz      :     1.842090  p :     4.911850
      px      :     1.619075
      py      :     1.450685
      dz2     :     0.002084  d :     0.019379
      dxz     :     0.003415
      dyz     :     0.004986
      dx2y2   :     0.007176
      dxy     :     0.001718
      f0      :     0.000269  f :     0.001214
      f+1     :     0.000100
      f-1     :     0.000085
      f+2     :     0.000325
      f-2     :     0.000067
      f+3     :     0.000015
      f-3     :     0.000353

 30 H s       :     0.614187  s :     0.614187
      pz      :     0.016861  p :     0.047950
      px      :     0.012976
      py      :     0.018113



                     *******************************
                     * LOEWDIN POPULATION ANALYSIS *
                     *******************************

----------------------
LOEWDIN ATOMIC CHARGES
----------------------
   0 C :   -0.679134
   1 C :   -0.479533
   2 C :   -0.472372
   3 C :   -0.470701
   4 C :   -0.469459
   5 C :   -0.471814
   6 C :   -0.457333
   7 C :   -0.652706
   8 F :    0.230406
   9 F :    0.233454
  10 F :    0.231848
  11 F :    0.230631
  12 F :    0.232674
  13 F :    0.232395
  14 F :    0.232037
  15 F :    0.232144
  16 F :    0.231097
  17 F :    0.227920
  18 F :    0.225838
  19 F :    0.218465
  20 F :    0.222393
  21 F :    0.185094
  22 F :    0.181249
  23 O :   -0.022245
  24 O :   -0.026853
  25 O :   -0.364674
  26 H :    0.155530
  27 H :    0.137990
  28 H :    0.135862
  29 O :   -0.359099
  30 H :    0.148895

-------------------------------
LOEWDIN REDUCED ORBITAL CHARGES
-------------------------------
  0 C s       :     2.754466  s :     2.754466
      pz      :     0.789130  p :     2.495443
      px      :     0.827132
      py      :     0.879181
      dz2     :     0.251738  d :     1.163880
      dxz     :     0.268741
      dyz     :     0.199879
      dx2y2   :     0.186378
      dxy     :     0.257144
      f0      :     0.046227  f :     0.265346
      f+1     :     0.045920
      f-1     :     0.032371
      f+2     :     0.034582
      f-2     :     0.042254
      f+3     :     0.028747
      f-3     :     0.035244

  1 C s       :     2.759420  s :     2.759420
      pz      :     0.767528  p :     2.595792
      px      :     0.851796
      py      :     0.976468
      dz2     :     0.211768  d :     0.939356
      dxz     :     0.236834
      dyz     :     0.174676
      dx2y2   :     0.110880
      dxy     :     0.205197
      f0      :     0.033929  f :     0.184965
      f+1     :     0.036725
      f-1     :     0.021129
      f+2     :     0.035813
      f-2     :     0.029484
      f+3     :     0.013994
      f-3     :     0.013891

  2 C s       :     2.756054  s :     2.756054
      pz      :     0.747182  p :     2.591466
      px      :     0.845910
      py      :     0.998374
      dz2     :     0.235003  d :     0.940101
      dxz     :     0.231528
      dyz     :     0.155860
      dx2y2   :     0.119597
      dxy     :     0.198114
      f0      :     0.033701  f :     0.184751
      f+1     :     0.041178
      f-1     :     0.024333
      f+2     :     0.031062
      f-2     :     0.026503
      f+3     :     0.013750
      f-3     :     0.014226

  3 C s       :     2.756057  s :     2.756057
      pz      :     0.797146  p :     2.590588
      px      :     0.824225
      py      :     0.969217
      dz2     :     0.216991  d :     0.939295
      dxz     :     0.201949
      dyz     :     0.177856
      dx2y2   :     0.149388
      dxy     :     0.193111
      f0      :     0.033828  f :     0.184761
      f+1     :     0.038847
      f-1     :     0.024174
      f+2     :     0.026546
      f-2     :     0.019605
      f+3     :     0.020552
      f-3     :     0.021210

  4 C s       :     2.756725  s :     2.756725
      pz      :     0.799716  p :     2.591143
      px      :     0.790416
      py      :     1.001011
      dz2     :     0.213753  d :     0.937468
      dxz     :     0.201637
      dyz     :     0.172303
      dx2y2   :     0.183026
      dxy     :     0.166751
      f0      :     0.036639  f :     0.184122
      f+1     :     0.036325
      f-1     :     0.025570
      f+2     :     0.024708
      f-2     :     0.014136
      f+3     :     0.019820
      f-3     :     0.026924

  5 C s       :     2.758681  s :     2.758681
      pz      :     0.855284  p :     2.592334
      px      :     0.757831
      py      :     0.979219
      dz2     :     0.190479  d :     0.937534
      dxz     :     0.198102
      dyz     :     0.173309
      dx2y2   :     0.209682
      dxy     :     0.165963
      f0      :     0.031500  f :     0.183265
      f+1     :     0.032490
      f-1     :     0.019488
      f+2     :     0.030889
      f-2     :     0.018101
      f+3     :     0.022199
      f-3     :     0.028598

  6 C s       :     2.773797  s :     2.773797
      pz      :     0.837478  p :     2.597186
      px      :     0.721584
      py      :     1.038124
      dz2     :     0.154857  d :     0.908104
      dxz     :     0.221374
      dyz     :     0.177911
      dx2y2   :     0.209135
      dxy     :     0.144827
      f0      :     0.024460  f :     0.178246
      f+1     :     0.037654
      f-1     :     0.012519
      f+2     :     0.029198
      f-2     :     0.026520
      f+3     :     0.021679
      f-3     :     0.026215

  7 C s       :     2.768263  s :     2.768263
      pz      :     0.790495  p :     2.694583
      px      :     0.983871
      py      :     0.920217
      dz2     :     0.074128  d :     1.032704
      dxz     :     0.240126
      dyz     :     0.069765
      dx2y2   :     0.356960
      dxy     :     0.291723
      f0      :     0.010324  f :     0.157156
      f+1     :     0.018663
      f-1     :     0.006089
      f+2     :     0.014166
      f-2     :     0.024016
      f+3     :     0.053755
      f-3     :     0.030143

  8 F s       :     3.593207  s :     3.593207
      pz      :     1.693388  p :     5.142886
      px      :     1.653519
      py      :     1.795978
      dz2     :     0.005312  d :     0.031829
      dxz     :     0.013137
      dyz     :     0.003296
      dx2y2   :     0.005151
      dxy     :     0.004934
      f0      :     0.000205  f :     0.001672
      f+1     :     0.000435
      f-1     :     0.000060
      f+2     :     0.000391
      f-2     :     0.000291
      f+3     :     0.000119
      f-3     :     0.000171

  9 F s       :     3.591575  s :     3.591575
      pz      :     1.581283  p :     5.141128
      px      :     1.758982
      py      :     1.800864
      dz2     :     0.012084  d :     0.032142
      dxz     :     0.010486
      dyz     :     0.006507
      dx2y2   :     0.001327
      dxy     :     0.001738
      f0      :     0.000434  f :     0.001700
      f+1     :     0.000542
      f-1     :     0.000306
      f+2     :     0.000160
      f-2     :     0.000219
      f+3     :     0.000017
      f-3     :     0.000022

 10 F s       :     3.593150  s :     3.593150
      pz      :     1.809343  p :     5.141242
      px      :     1.722086
      py      :     1.609814
      dz2     :     0.004674  d :     0.032062
      dxz     :     0.002307
      dyz     :     0.003807
      dx2y2   :     0.008203
      dxy     :     0.013070
      f0      :     0.000152  f :     0.001698
      f+1     :     0.000119
      f-1     :     0.000219
      f+2     :     0.000040
[...]
 47:    474.08   0.001054    5.33  0.000694  ( 0.004533  0.011286 -0.023370)
 48:    521.35   0.011719   59.22  0.007015  (-0.003536  0.076478  0.033959)
 49:    530.95   0.010656   53.85  0.006263  ( 0.019317 -0.070419 -0.030519)
 50:    547.05   0.010993   55.55  0.006271  (-0.014421 -0.058774 -0.051073)
 51:    561.86   0.010097   51.02  0.005608  (-0.043207 -0.058820  0.016768)
 52:    566.43   0.000130    0.66  0.000072  (-0.006208 -0.000346 -0.005737)
 53:    585.52   0.001439    7.27  0.000767  (-0.013309  0.023617 -0.005679)
 54:    605.74   0.002411   12.18  0.001242  ( 0.006340  0.031814  0.013776)
 55:    616.60   0.000610    3.08  0.000309  (-0.006465  0.014860  0.006778)
 56:    646.87   0.019014   96.09  0.009173  (-0.018304 -0.092180 -0.018453)
 57:    657.55   0.026399  133.41  0.012529  (-0.029714  0.015684  0.106769)
 58:    671.45   0.019662   99.36  0.009138  (-0.002962  0.094072  0.016728)
 59:    680.28   0.028283  142.93  0.012974  ( 0.058268 -0.049612 -0.084366)
 60:    690.90   0.002672   13.50  0.001207  (-0.013751 -0.031870  0.001498)
 61:    731.50   0.000495    2.50  0.000211  ( 0.005477 -0.012847  0.004002)
 62:    737.48   0.004921   24.87  0.002082  (-0.002854 -0.043209 -0.014387)
 63:    780.61   0.001108    5.60  0.000443  ( 0.008914 -0.018484  0.004667)
 64:    816.39   0.016398   82.87  0.006268  (-0.017096 -0.066823  0.038866)
 65:    891.93   0.004481   22.64  0.001568  ( 0.002794 -0.039453 -0.001812)
 66:   1019.27   0.009368   47.34  0.002868  (-0.001245 -0.043100 -0.031766)
 67:   1109.09   0.016215   81.94  0.004562  ( 0.048160  0.041256 -0.023258)
 68:   1132.27   0.020712  104.67  0.005709  (-0.068898  0.006056 -0.030412)
 69:   1137.03   0.016624   84.01  0.004563  (-0.031020  0.004217  0.059855)
 70:   1144.40   0.027113  137.02  0.007393  ( 0.042965 -0.016791  0.072563)
 71:   1151.53   0.077572  392.02  0.021022  (-0.126536 -0.037067  0.060303)
 72:   1161.95   0.081427  411.50  0.021869  ( 0.146572 -0.003708 -0.019271)
 73:   1172.19   0.005120   25.88  0.001363  (-0.013278 -0.003289  0.034294)
 74:   1174.52   0.061016  308.35  0.016212  (-0.105150  0.015991 -0.069997)
 75:   1181.10   0.109568  553.71  0.028949  (-0.076970  0.043099 -0.145491)
 76:   1188.34   0.096337  486.85  0.025298  (-0.091271  0.008749  0.129967)
 77:   1193.55   0.066085  333.97  0.017278  ( 0.083094 -0.058120  0.083642)
 78:   1210.23   0.087413  441.75  0.022540  ( 0.017736 -0.057448  0.137568)
 79:   1220.13   0.006722   33.97  0.001719  (-0.025467  0.012084 -0.030408)
 80:   1246.29   0.012919   65.29  0.003235  (-0.025314  0.047671 -0.017930)
 81:   1276.30   0.003236   16.36  0.000791  ( 0.025702 -0.011271  0.001926)
 82:   1296.01   0.003894   19.68  0.000938  ( 0.021078 -0.022209 -0.000410)
 83:   1316.74   0.007017   35.46  0.001663  (-0.010417  0.020260  0.033823)
 84:   1371.51   0.036742  185.68  0.008360  (-0.013201 -0.089698 -0.011830)
 85:   1415.19   0.026835  135.61  0.005917  (-0.011389 -0.075643  0.008103)
 86:   1667.65   0.020192  102.04  0.003779  ( 0.020221 -0.057532  0.007730)
 87:   1672.99   0.031917  161.29  0.005953  ( 0.059068 -0.034374  0.035818)
 88:   1740.75   0.220545  1114.54  0.039537  ( 0.197522 -0.012382  0.019202)
 89:   3498.41   0.290174  1466.42  0.025884  (-0.153980 -0.028260 -0.037087)
 90:   3529.43   0.102386  517.42  0.009053  ( 0.089530 -0.024670  0.020700)
 91:   3852.47   0.020962  105.93  0.001698  (-0.034771 -0.021153 -0.006440)
 92:   3855.39   0.013074   66.07  0.001058  (-0.017346 -0.026594  0.007079)

* The epsilon (eps) is given for a Dirac delta lineshape.
** The dipole moment derivative (T) already includes vibrational overlap.

The first frequency considered to be a vibration is 6
The total number of vibrations considered is 87


--------------------------
THERMOCHEMISTRY AT 298.15K
--------------------------

Temperature         ...   298.15 K
Pressure            ...     1.00 atm
Total Mass          ...   449.09 AMU
Quasi RRHO          ...     True
Cut-Off Frequency   ...     1.00 cm^-1

Throughout the following assumptions are being made:
  (1) The electronic state is orbitally nondegenerate
  (2) There are no thermally accessible electronically excited states
  (3) Hindered rotations indicated by low frequency modes are not
      treated as such but are treated as vibrations and this may
      cause some error
  (4) All equations used are the standard statistical mechanics
      equations for an ideal gas
  (5) All vibrations are strictly harmonic

freq.      18.67  E(vib)   ...       0.57 
freq.      24.63  E(vib)   ...       0.56 
freq.      30.00  E(vib)   ...       0.55 
freq.      35.06  E(vib)   ...       0.54 
freq.      44.02  E(vib)   ...       0.53 
freq.      51.84  E(vib)   ...       0.52 
freq.      53.81  E(vib)   ...       0.52 
freq.      55.58  E(vib)   ...       0.52 
freq.      64.93  E(vib)   ...       0.50 
freq.      69.86  E(vib)   ...       0.50 
freq.      76.49  E(vib)   ...       0.49 
freq.      77.45  E(vib)   ...       0.49 
freq.      97.18  E(vib)   ...       0.46 
freq.     118.86  E(vib)   ...       0.44 
freq.     122.65  E(vib)   ...       0.43 
freq.     134.50  E(vib)   ...       0.42 
freq.     155.94  E(vib)   ...       0.40 
freq.     167.87  E(vib)   ...       0.38 
freq.     187.01  E(vib)   ...       0.36 
freq.     192.75  E(vib)   ...       0.36 
freq.     203.62  E(vib)   ...       0.35 
freq.     205.19  E(vib)   ...       0.35 
freq.     214.51  E(vib)   ...       0.34 
freq.     235.57  E(vib)   ...       0.32 
freq.     244.77  E(vib)   ...       0.31 
freq.     255.30  E(vib)   ...       0.30 
freq.     257.19  E(vib)   ...       0.30 
freq.     273.76  E(vib)   ...       0.28 
freq.     290.18  E(vib)   ...       0.27 
freq.     306.69  E(vib)   ...       0.26 
freq.     315.44  E(vib)   ...       0.25 
freq.     338.37  E(vib)   ...       0.23 
freq.     351.82  E(vib)   ...       0.23 
freq.     364.96  E(vib)   ...       0.22 
freq.     367.81  E(vib)   ...       0.21 
freq.     374.45  E(vib)   ...       0.21 
freq.     376.37  E(vib)   ...       0.21 
freq.     382.08  E(vib)   ...       0.21 
freq.     402.83  E(vib)   ...       0.19 
freq.     418.93  E(vib)   ...       0.18 
freq.     441.57  E(vib)   ...       0.17 
freq.     474.08  E(vib)   ...       0.15 
freq.     521.35  E(vib)   ...       0.13 
freq.     530.95  E(vib)   ...       0.13 
freq.     547.05  E(vib)   ...       0.12 
freq.     561.86  E(vib)   ...       0.11 
freq.     566.43  E(vib)   ...       0.11 
freq.     585.52  E(vib)   ...       0.11 
freq.     605.74  E(vib)   ...       0.10 
freq.     616.60  E(vib)   ...       0.09 
freq.     646.87  E(vib)   ...       0.09 
freq.     657.55  E(vib)   ...       0.08 
freq.     671.45  E(vib)   ...       0.08 
freq.     680.28  E(vib)   ...       0.08 
freq.     690.90  E(vib)   ...       0.07 
freq.     731.50  E(vib)   ...       0.06 
freq.     737.48  E(vib)   ...       0.06 
freq.     780.61  E(vib)   ...       0.05 
freq.     816.39  E(vib)   ...       0.05 
freq.     891.93  E(vib)   ...       0.03 
freq.    1019.27  E(vib)   ...       0.02 
freq.    1109.09  E(vib)   ...       0.02 
freq.    1132.27  E(vib)   ...       0.01 
freq.    1137.03  E(vib)   ...       0.01 
freq.    1144.40  E(vib)   ...       0.01 
freq.    1151.53  E(vib)   ...       0.01 
freq.    1161.95  E(vib)   ...       0.01 
freq.    1172.19  E(vib)   ...       0.01 
freq.    1174.52  E(vib)   ...       0.01 
freq.    1181.10  E(vib)   ...       0.01 
freq.    1188.34  E(vib)   ...       0.01 
freq.    1193.55  E(vib)   ...       0.01 
freq.    1210.23  E(vib)   ...       0.01 
freq.    1220.13  E(vib)   ...       0.01 
freq.    1246.29  E(vib)   ...       0.01 
freq.    1276.30  E(vib)   ...       0.01 
freq.    1296.01  E(vib)   ...       0.01 
freq.    1316.74  E(vib)   ...       0.01 
freq.    1371.51  E(vib)   ...       0.01 
freq.    1415.19  E(vib)   ...       0.00 
freq.    1667.65  E(vib)   ...       0.00 
freq.    1672.99  E(vib)   ...       0.00 
freq.    1740.75  E(vib)   ...       0.00 
freq.    3498.41  E(vib)   ...       0.00 
freq.    3529.43  E(vib)   ...       0.00 
freq.    3852.47  E(vib)   ...       0.00 
freq.    3855.39  E(vib)   ...       0.00 

------------
INNER ENERGY
------------

The inner energy is: U= E(el) + E(ZPE) + E(vib) + E(rot) + E(trans)
    E(el)   - is the total energy from the electronic structure calculation
              = E(kin-el) + E(nuc-el) + E(el-el) + E(nuc-nuc)
    E(ZPE)  - the the zero temperature vibrational energy from the frequency calculation
    E(vib)  - the the finite temperature correction to E(ZPE) due to population
              of excited vibrational states
    E(rot)  - is the rotational thermal energy
    E(trans)- is the translational thermal energy

Summary of contributions to the inner energy U:
Electronic energy                ...  -2105.88588696 Eh
Zero point energy                ...      0.14728310 Eh      92.42 kcal/mol
Thermal vibrational correction   ...      0.02689101 Eh      16.87 kcal/mol
Thermal rotational correction    ...      0.00141627 Eh       0.89 kcal/mol
Thermal translational correction ...      0.00141627 Eh       0.89 kcal/mol
-----------------------------------------------------------------------
Total thermal energy                  -2105.70888031 Eh


Summary of corrections to the electronic energy:
(perhaps to be used in another calculation)
Total thermal correction                  0.02972355 Eh      18.65 kcal/mol
Non-thermal (ZPE) correction              0.14728310 Eh      92.42 kcal/mol
-----------------------------------------------------------------------
Total correction                          0.17700665 Eh     111.07 kcal/mol


--------
ENTHALPY
--------

The enthalpy is H = U + kB*T
                kB is Boltzmann's constant
Total thermal energy              ...  -2105.70888031 Eh 
Thermal Enthalpy correction       ...      0.00094421 Eh       0.59 kcal/mol
-----------------------------------------------------------------------
Total Enthalpy                    ...  -2105.70793610 Eh


Note: Only C1 symmetry has been detected, increase convergence thresholds 
      if your molecule has a higher symmetry. Symmetry factor of 1.0 is   
      used for the rotational entropy correction. 
 

Note: Rotational entropy computed according to Herzberg 
Infrared and Raman Spectra, Chapter V,1, Van Nostrand Reinhold, 1945 
Point Group:  C1, Symmetry Number:   1  
Rotational constants in cm-1:     0.013420     0.003319     0.003032 

Vibrational entropy computed according to the QRRHO of S. Grimme
Chem.Eur.J. 2012 18 9955 using a reference frequency of 100.0 cm-1


-------
ENTROPY
-------

The entropy contributions are T*S = T*(S(el)+S(vib)+S(rot)+S(trans))
     S(el)   - electronic entropy
     S(vib)  - vibrational entropy
     S(rot)  - rotational entropy
     S(trans)- translational entropy
The entropies will be listed as multiplied by the temperature to get
units of energy

Electronic entropy                ...      0.00000000 Eh      0.00 kcal/mol
Vibrational entropy               ...      0.04940596 Eh     31.00 kcal/mol
Rotational entropy                ...      0.01697814 Eh     10.65 kcal/mol
Translational entropy             ...      0.02099854 Eh     13.18 kcal/mol
-----------------------------------------------------------------------
Final entropy term                ...      0.08738264 Eh     54.83 kcal/mol

In case the symmetry of your molecule has not been determined correctly
or in case you have a reason to use a different symmetry number we print 
out the resulting rotational entropy values for sn=1,12:

 non-linear molecules -----------------------------------
|  sn= 1 | S(rot)=       0.01697814 Eh     10.65 kcal/mol|
|  sn= 2 | S(rot)=       0.01632369 Eh     10.24 kcal/mol|
|  sn= 3 | S(rot)=       0.01594085 Eh     10.00 kcal/mol|
|  sn= 4 | S(rot)=       0.01566923 Eh      9.83 kcal/mol|
|  sn= 5 | S(rot)=       0.01545854 Eh      9.70 kcal/mol|
|  sn= 6 | S(rot)=       0.01528640 Eh      9.59 kcal/mol|
|  sn= 7 | S(rot)=       0.01514085 Eh      9.50 kcal/mol|
|  sn= 8 | S(rot)=       0.01501477 Eh      9.42 kcal/mol|
|  sn= 9 | S(rot)=       0.01490357 Eh      9.35 kcal/mol|
|  sn=10 | S(rot)=       0.01480409 Eh      9.29 kcal/mol|
|  sn=11 | S(rot)=       0.01471410 Eh      9.23 kcal/mol|
|  sn=12 | S(rot)=       0.01463194 Eh      9.18 kcal/mol|
 linear molecules ---------------------------------------
|  Dinfh | S(rot)=       0.01080075 Eh      6.78 kcal/mol|
|  Cinfv | S(rot)=       0.01145521 Eh      7.19 kcal/mol|
 --------------------------------------------------------


-------------------
GIBBS FREE ENERGY
-------------------

The Gibbs free energy is G = H - T*S

Total enthalpy                    ...  -2105.70793610 Eh 
Total entropy correction          ...     -0.08738264 Eh    -54.83 kcal/mol
-----------------------------------------------------------------------
Final Gibbs free energy         ...  -2105.79531875 Eh

For completeness - the Gibbs free energy minus the electronic energy
G-E(el)                           ...      0.09056821 Eh     56.83 kcal/mol


Maximum memory used throughout the entire PROP-calculation: 427.2 MB

--------------------------------
SUGGESTED CITATIONS FOR THIS RUN
--------------------------------

Below you find a list of papers that are relevant to this ORCA run
We neither can nor want to force you to cite these papers, but we appreciate if you do
You receive ORCA, which is the product of decades of hard work by many enthusiastic individuals, for free
The only thing we kindly ask in return is that you cite our papers,
We deeply appreciate it, if you show your appreciation for ORCA by not just citing the generic ORCA reference.

Please note that relegating all ORCA citations to the supporting information does *not* help us.
SI sections are not indexed - citations you put there will not count into any citation statistics
But we need these citations in order to attract the funding resources that allow us to do what we are doing

Therefore, if you are a happy ORCA user, please consider citing a few of the papers listed below in the main body of your paper

In addition to the list printed below, the program has created the file rf_mecn_2H2O_freq_r2s_con_01.bibtex that contains the list in bibtex format
You can import this file easily into all common literature databanks and citation aid programs


List of essential papers. We consider these as the minimum necessary citations

  1. Neese,F.
     Software update: the ORCA program system, version 5.0
     WIRES Comput. Molec. Sci., 2022 12(1)e1606
     doi.org/10.1002/wcms.1606

List of papers to cite with high priority. The work reported in these papers was absolutely
necessary for this run to complete.
Our perspective: the developers of density functionals and basis sets usually get cited in chemistry papers
Good! But without the algorithms to do something with them, the functionals or basis sets would not do anything.
Hence, in our opinion, the algorithm design and method developments papers are equally worthy of getting cited

  1. Neese,F.
     An improvement of the resolution of the identity approximation for the formation of the Coulomb matrix
     J. Comp. Chem., 2003 24(14)1740-1747
     doi.org/10.1002/jcc.10318
  2. Neese,F.; Wennmohs,F.; Hansen,A.; Becker,U.
     Efficient, approximate and parallel Hartree-Fock and hybrid DFT calculations. A 'chain-of-spheres' algorithm for the Hartree-Fock exchange
     Chem. Phys., 2009 356(1-3)98-109
     doi.org/10.1016/j.chemphys.2008.10.036
  3. Bykov,D.; Petrenko,T.; Izsak,R.; Kossmann,S.; Becker,U.; Valeev,E.; Neese,F.
     Efficient implementation of the analytic second derivatives of Hartree-Fock and hybrid DFT energies: a detailed analysis of different approximations
     Molec. Phys., 2015 113 1961-1977
     doi.org/10.1080/00268976.2015.1025114
  4. Garcia-Rates,M.; Neese,F.
     Efficient implementation of the analytical second derivatives of hartree-fock and hybrid DFT energies within the framework of the conductor-like polarizable continuum model
     J. Comput. Chem., 2019 40 1816-1828
     doi.org/10.1002/jcc.25833
  5. Garcia-Rates,M.; Neese,F.
     Effect of the Solute Cavity on the Solvation Energy and its Derivatives within the Framework of the Gaussian Charge Scheme
     J. Comput. Chem., 2020 41 922-939
     doi.org/10.1002/jcc.26139
  6. Helmich-Paris,B.; de Souza,B.; Neese,F.; Izsák,R.
     An improved chain of spheres for exchange algorithm
     J. Chem. Phys., 2021 155 104109
     doi.org/doi: 10.1063/5.0058766.
  7. Neese,F.
     The SHARK Integral Generation and Digestion System
     J. Comp. Chem., 2022  1-16
     doi.org/10.1002/jcc.26942
  8. Lehtola,S.; Steigemann,C.; Oliveira,M.; Marques,M.
     Recent developments in Libxc - A comprehensive library of functionals for density functional theory
     Software X, 2018 7 
     doi.org/10.1016/j.softx.2017.11.002
  9. Grimme,S.; Antony,J.; Ehrlich,S.; Krieg,H.
     A consistent and accurate ab initio parametrization of density functional dispersion correction (DFT-D) for the 94 elements H-Pu
     J. Chem. Phys., 2010 132 154104
     doi.org/10.1063/1.3382344
 10. Grimme,S.; Ehrlich,S.; Goerigk,L.
     Effect of the damping function in dispersion corrected density functional theory
     J. Comput. Chem., 2011 32(7)1456-1465
     doi.org/10.1002/jcc.21759
 11. Bursch,M.; Neugebauer,H.; Ehlert,S.; Grimme,S.
     Dispersion corrected r2SCAN based global hybrid functionals: r2SCANh, r2SCAN0, and r2SCAN50
     J. Phys. Chem., 2022 156(13)134105
     doi.org/10.1063/5.0086040

List of suggested additional citations. These are papers that are important in the 'surrounding' of 
of this run, or papers that preceded the highly important papers. If you like your results we are grateful for a citation.

  1. Izsak,R.; Neese,F.
     An overlap fitted chain of spheres exchange method
     J. Chem. Phys., 2011 135 144105
     doi.org/10.1063/1.3646921
  2. Izsak,R.; Hansen,A.; Neese,F.
     The resolution of identity and chain of spheres approximations for the LPNO-CCSD singles Fock term
     Molec. Phys., 2012 110 2413-2417
     doi.org/10.1080/00268976.2012.687466
  3. Neese,F.
     The ORCA program system
     WIRES Comput. Molec. Sci., 2012 2(1)73-78
     doi.org/10.1002/wcms.81
  4. Izsak,R.; Neese,F.; Klopper,W.
     Robust fitting techniques in the chain of spheres approximation to the Fock exchange: The role of the complementary space
     J. Chem. Phys., 2013 139 
     doi.org/10.1063/1.4819264
  5. Neese,F.
     Software update: the ORCA program system, version 4.0
     WIRES Comput. Molec. Sci., 2018 8(1)1-6
     doi.org/10.1002/wcms.1327
  6. Neese,F.; Wennmohs,F.; Becker,U.; Riplinger,C.
     The ORCA quantum chemistry program package
     J. Chem. Phys., 2020 152 Art. No. L224108
     doi.org/10.1063/5.0004608
  7. Wittmann,L.; Neugebauer,H.; Grimme,S.; Bursch,M.
     Dispersion-corrected r2SCAN based double-hybrid functionals
     J. Chem. Phys., 2023 159(22)224103
     doi.org/10.1063/5.0174988

List of optional additional citations

  1. Neese,F.
     Approximate second-order SCF convergence for spin unrestricted wavefunctions
     Chem. Phys. Lett., 2000 325(1-3)93-98
     doi.org/10.1016/s0009-2614(00)00662-x

Timings for individual modules:

Sum of individual times          ...     1329.228 sec (=  22.154 min)
Startup calculation              ...        4.425 sec (=   0.074 min)   0.3 %
SCF iterations                   ...      105.627 sec (=   1.760 min)   7.9 %
Property integrals               ...      371.230 sec (=   6.187 min)  27.9 %
SCF Response                     ...      531.861 sec (=   8.864 min)  40.0 %
Property calculations            ...      316.084 sec (=   5.268 min)  23.8 %
                             ****ORCA TERMINATED NORMALLY****
TOTAL RUN TIME: 0 days 0 hours 22 minutes 10 seconds 17 msec
