
                                 *****************
                                 * O   R   C   A *
                                 *****************

                                            #,                                       
                                            ###                                      
                                            ####                                     
                                            #####                                    
                                            ######                                   
                                           ########,                                 
                                     ,,################,,,,,                         
                               ,,#################################,,                 
                          ,,##########################################,,             
                       ,#########################################, ''#####,          
                    ,#############################################,,   '####,        
                  ,##################################################,,,,####,       
                ,###########''''           ''''###############################       
              ,#####''   ,,,,##########,,,,          '''####'''          '####       
            ,##' ,,,,###########################,,,                        '##       
           ' ,,###''''                  '''############,,,                           
         ,,##''                                '''############,,,,        ,,,,,,###''
      ,#''                                            '''#######################'''  
     '                                                          ''''####''''         
             ,#######,   #######,   ,#######,      ##                                
            ,#'     '#,  ##    ##  ,#'     '#,    #''#        ,####,   ,####,        
            ##       ##  ##   ,#'  ##            #'  '#       #'       #'  '#        
            ##       ##  #######   ##           ,######,      #####,   #    #        
            '#,     ,#'  ##    ##  '#,     ,#' ,#      #,     #,   #   #,  ,#        
             '#######'   ##     ##  '#######'  #'      '#     '####' # '####'        



                #########################################################
                #                        -***-                          #
                #          Department of theory and spectroscopy        #
                #                                                       #
                #                      Frank Neese                      #
                #                                                       #
                #     Directorship, Architecture, Infrastructure        #
                #                    SHARK, DRIVERS                     #
                #        Core code/Algorithms in most modules           #
                #                                                       #
                #        Max Planck Institute fuer Kohlenforschung      #
                #                Kaiser Wilhelm Platz 1                 #
                #                 D-45470 Muelheim/Ruhr                 #
                #                      Germany                          #
                #                                                       #
                #                  All rights reserved                  #
                #                        -***-                          #
                #########################################################


                         Program Version 6.0.1  -  RELEASE   -


 With contributions from (in alphabetic order):
[Max-Planck-Institut fuer Kohlenforschung]                               
  Daniel Aravena         : Magnetic Suceptibility                        
  Michael Atanasov       : Ab Initio Ligand Field Theory (pilot matlab implementation)
  Alexander A. Auer      : GIAO ZORA, VPT2 properties, NMR spectrum      
  Ute Becker             : All parallelization in ORCA, NUMFREQ, NUMCALC 
  Giovanni Bistoni       : ED, misc. LED, open-shell LED, HFLD           
  Martin Brehm           : Molecular dynamics                            
  Dmytro Bykov           : pre 5.0 version of the SCF Hessian            
  Marcos Casanova-Páez   : Triplet and SCS-CIS(D). UHF-(DLPNO)-IP/EA/STEOM-CCSD. UHF-CVS-IP/STEOM-CCSD   
  Vijay G. Chilkuri      : MRCI spin determinant printing, contributions to CSF-ICE 
  Pauline Colinet        : FMM embedding                                 
  Dipayan Datta          : RHF DLPNO-CCSD density                        
  Achintya Kumar Dutta   : EOM-CC, STEOM-CC                              
  Nicolas Foglia         : Exact transition moments, OPA infrastructure, MCD improvements    
  Dmitry Ganyushin       : Spin-Orbit,Spin-Spin,Magnetic field MRCI      
  Miquel Garcia-Rates    : C-PCM and meta-GGA Hessian, CCSD/C-PCM, Gaussian charge scheme 
  Tiago L. C. Gouveia    : GS-ROHF, GS-ROCIS                             
  Yang Guo               : DLPNO-NEVPT2, F12-NEVPT2, CIM, IAO-localization        
  Andreas Hansen         : Spin unrestricted coupled pair/coupled cluster methods 
  Ingolf Harden          : AUTO-CI MPn and infrastructure                
  Benjamin Helmich-Paris : MC-RPA, TRAH-(SCF,CASSCF), AVAS, COSX integrals, SCF dyn. polar. 
  Lee Huntington         : MR-EOM, pCC                                   
  Robert Izsak           : Overlap fitted RIJCOSX, COSX-SCS-MP3, EOM     
  Riya Kayal             : Wick's Theorem for AUTO-CI, AUTO-CI UHF-CCSDT 
  Emily Kempfer          : AUTO-CI, RHF CISDT and CCSDT                  
  Christian Kollmar      : KDIIS, OOCD, Brueckner-CCSD(T), CCSD density, CASPT2, CASPT2-K, improved NEVPT2 
  Axel Koslowski         : Symmetry handling                             
  Simone Kossmann        : meta-GGA functionals, TD-DFT gradient, OOMP2, (MP2 Hessian; deprecated post 5.0) 
  Lucas Lang             : DCDCAS                                        
  Marvin Lechner         : AUTO-CI (C++ implementation), FIC-MRCC        
  Spencer Leger          : CASSCF response                               
  Dagmar Lenk            : GEPOL surface, SMD, ORCA-2-JSON               
  Dimitrios Liakos       : Extrapolation schemes; Compound Job, initial MDCI parallelization 
  Dimitrios Manganas     : Further ROCIS development; embedding schemes. LFT, Crystal Embedding 
  Dimitrios Pantazis     : SARC Basis sets                               
  Anastasios Papadopoulos: AUTO-CI, single reference methods and gradients 
  Taras Petrenko         : pre 6.0 DFT Hessian and TD-DFT gradient, (ASA, deprecated), ECA, 1-Electron XAS/XES, NRVS 
  Peter Pinski           : DLPNO-MP2, DLPNO-MP2 Gradient                 
  Christoph Reimann      : Effective Core Potentials                     
  Marius Retegan         : Local ZFS, SOC                                
  Christoph Riplinger    : Optimizer, TS searches, QM/MM, DLPNO-CCSD(T), (RO)-DLPNO pert. Triples 
  Michael Roemelt        : Original ROCIS implementation                 
  Masaaki Saitow         : Open-shell DLPNO-CCSD energy and density      
  Barbara Sandhoefer     : DKH picture change effects                    
  Kantharuban Sivalingam : CASSCF convergence/infrastructure, NEVPT2 and variants, FIC-MRCI 
  Bernardo de Souza      : ESD, SOC TD-DFT                               
  Georgi L. Stoychev     : AutoAux, RI-MP2 NMR, DLPNO-MP2 response, X2C  
  Van Anh Tran           : RI-MP2 g-tensors                              
  Willem Van den Heuvel  : Paramagnetic NMR                              
  Zikuan Wang            : NOTCH, Electric field optimization            
  Frank Wennmohs         : Technical directorship and infrastructure     
  Hang Xu                : AUTO-CI-Response properties                   
                                                                         
[FACCTs GmbH]                                                            
  Markus Bursch, Miquel Garcia-Rates, Christoph Riplinger, Bernardo de Souza, Georgi L. Stoychev 
                                                                 
  APM, Basis sets (HGBS, AHGBS, def-TZVP (Ac-Lr), def2-XVPD (La-Lu)), CI-OPT, improved COSX, DLPNO-Multilevel,           
  DOCKER, DRACO, updates on ESD, GOAT, IRC, LR-CPCM, MBIS, meta-GGA TD-DFT gradient, ML-optimized integration grids, 
  MM, NACMEs, nearIR, NEB, NEB-TS, NL-DFT gradient (VV10), 2- and 3-layer-ONIOM, interface openCOSMO-RS, QMMM,   
  Crystal-QMMM, SF, symmetry and pop. for TD-DFT, r2SCAN hybrids, SOLVATOR                                   
                                                                         
[Other institutions]                                                     
  V. Asgeirsson          : NEB                                           
  Christoph Bannwarth    : sTDA-DFT, sTD-DFT, PBEh-3c, B97-3c, D3        
  Sebastian Ehlert       : rSCAN, r2SCAN, r2SCAN-3c, D4, dhf basis sets  
  Marvin Friede          : D4 for Fr, Ra, Ac-Lr                          
  Lars Goerigk           : TD-DFT with DH, B97 family of functionals     
  Stefan Grimme          : VdW corrections, initial TS optimization, DFT functionals, gCP, sTDA/sTD-DF 
  Waldemar Hujo          : DFT-NL                                        
  H. Jonsson             : NEB                                           
  Holger Kruse           : gCP                                           
  Marcel Mueller         : wB97X-3c, vDZP basis set                      
  Hagen Neugebauer       : wr2SCAN                                       
  Tobias Risthaus        : range-separated hybrid DFT                    
  Lukas Wittmann         : regularized MP2, r2SCAN double-hybrids, wr2SCAN        
                                                                         
We gratefully acknowledge several colleagues who have allowed us to      
interface, adapt or use parts of their codes:                            
  Ed Valeev, F. Pavosevic, A. Kumar             : LibInt (2-el integral package), F12 methods 
  Garnet Chan, S. Sharma, J. Yang, R. Olivares  : DMRG                   
  Ulf Ekstrom                                   : XCFun DFT Library      
  Mihaly Kallay                                 : mrcc  (arbitrary order and MRCC methods)
  Frank Weinhold                                : gennbo (NPA and NBO analysis)           
  Simon Mueller                                 : openCOSMO-RS                            
  Christopher J. Cramer and Donald G. Truhlar   : smd solvation model                     
  S Lehtola, MJT Oliveira, MAL Marques          : LibXC Library                           
  Liviu Ungur et al                             : ANISO software                          


 Your calculation uses the libint2 library for the computation of 2-el integrals
 For citations please refer to: http://libint.valeyev.net

 Your ORCA version has been built with support for libXC version: 6.2.2
 For citations please refer to: https://libxc.gitlab.io

 This ORCA versions uses:
   CBLAS   interface :  Fast vector & matrix operations
   LAPACKE interface :  Fast linear algebra routines
   SCALAPACK package :  Parallel linear algebra routines
   Shared memory     :  Shared parallel matrices
   BLAS/LAPACK       :  OpenBLAS 0.3.27  USE64BITINT DYNAMIC_ARCH NO_AFFINITY SkylakeX SINGLE_THREADED
        Core in use  :  SkylakeX
   Copyright (c) 2011-2014, The OpenBLAS Project


NOTE: MaxCore=8000 MB was set to SCF,MP2,MDCI,CIPSI,MRCI and CIS
      => If you want to overwrite this, your respective input block should be placed after the MaxCore statement
Your calculation utilizes the atom-pairwise dispersion correction
with the Becke-Johnson damping scheme (D3BJ)


Your calculation utilizes the SMD solvation module
Please cite in your paper:
A.V. Marenich, C.J. Cramer, D.G. Truhlar J. Phys. Chem. B, 113, (2009), 6378 

Warning: RI is on but no J-basis has been assigned. Assigning Def2/J (nothing to worry about!)
================================================================================

----- Orbital basis set information -----
Your calculation utilizes the basis: def2-TZVP
   F. Weigend and R. Ahlrichs, Phys. Chem. Chem. Phys. 7, 3297 (2005).

----- AuxJ basis set information -----
Your calculation utilizes the auxiliary basis: def2/J
   F. Weigend, Phys. Chem. Chem. Phys. 8, 1057 (2006).

================================================================================
                                        WARNINGS
                       Please study these warnings very carefully!
================================================================================



WARNING: SCAN, rSCAN, or r2SCAN functional requested.
  ===> : libXC variant has now been activated.



WARNING: your system is open-shell and RHF/RKS was chosen
  ===> : WILL SWITCH to UHF/UKS


================================================================================
                                       INPUT FILE
================================================================================
NAME = rf_mecn_1H2O_freq_r2s_sw_04.inp
|  1> !r2scanh def2-TZVP freq d3 TightSCF SlowConv defgrid2
|  2>  
|  3> %pal
|  4> nprocs 20
|  5> end
|  6>  
|  7> %scf
|  8> MaxIter 1500
|  9> end
| 10>  
| 11> %maxcore 8000
| 12>  
| 13> !CPCM
| 14> %cpcm smd true
| 15> SMDsolvent "ACETONITRILE"
| 16> end
| 17>  
| 18> * xyz -2 2
| 19> 6        6.834039000     28.252806000      2.605929000
| 20> 6        6.284703000     26.826906000      2.781828000
| 21> 6        6.903577000     25.584231000      2.085237000
| 22> 6        6.424810000     24.094110000      2.170117000
| 23> 6        7.047459000     22.850847000      1.468850000
| 24> 6        6.539579000     21.401143000      1.704337000
| 25> 6        7.037506000     20.256780000      0.785910000
| 26> 6        6.708600000     18.833502000      1.333579000
| 27> 9        6.777336000     28.627718000      1.325541000
| 28> 9        8.103880000     28.324849000      3.012994000
| 29> 9        6.144742000     29.182153000      3.314350000
| 30> 9        6.330841000     26.593546000      4.129667000
| 31> 9        4.977148000     26.899437000      2.386169000
| 32> 9        6.859173000     25.890217000      0.734796000
| 33> 9        8.217641000     25.566576000      2.509612000
| 34> 9        6.470597000     23.792320000      3.522107000
| 35> 9        5.110069000     24.126743000      1.754863000
| 36> 9        6.941248000     23.081425000      0.122129000
| 37> 9        8.373611000     22.849304000      1.808740000
| 38> 9        6.866265000     21.065921000      2.982588000
| 39> 9        5.183146000     21.420588000      1.614008000
| 40> 9        6.475206000     20.439428000     -0.443431000
| 41> 9        8.381508000     20.416684000      0.620663000
| 42> 8        7.635718000     18.245142000      1.897660000
| 43> 8        5.523474000     18.475191000      1.158333000
| 44> 8        3.288576000     19.441145000     -0.070535000
| 45> 1        3.079091000     18.675914000     -0.612863000
| 46> 1        4.139209000     19.202692000      0.357440000
| 47> *
| 48> 
| 49>                          ****END OF INPUT****
================================================================================

                       ****************************
                       * Single Point Calculation *
                       ****************************

---------------------------------
CARTESIAN COORDINATES (ANGSTROEM)
---------------------------------
  C      6.834039   28.252806    2.605929
  C      6.284703   26.826906    2.781828
  C      6.903577   25.584231    2.085237
  C      6.424810   24.094110    2.170117
  C      7.047459   22.850847    1.468850
  C      6.539579   21.401143    1.704337
  C      7.037506   20.256780    0.785910
  C      6.708600   18.833502    1.333579
  F      6.777336   28.627718    1.325541
  F      8.103880   28.324849    3.012994
  F      6.144742   29.182153    3.314350
  F      6.330841   26.593546    4.129667
  F      4.977148   26.899437    2.386169
  F      6.859173   25.890217    0.734796
  F      8.217641   25.566576    2.509612
  F      6.470597   23.792320    3.522107
  F      5.110069   24.126743    1.754863
  F      6.941248   23.081425    0.122129
  F      8.373611   22.849304    1.808740
  F      6.866265   21.065921    2.982588
  F      5.183146   21.420588    1.614008
  F      6.475206   20.439428   -0.443431
  F      8.381508   20.416684    0.620663
  O      7.635718   18.245142    1.897660
  O      5.523474   18.475191    1.158333
  O      3.288576   19.441145   -0.070535
  H      3.079091   18.675914   -0.612863
  H      4.139209   19.202692    0.357440

----------------------------
CARTESIAN COORDINATES (A.U.)
----------------------------
  NO LB      ZA    FRAG     MASS         X           Y           Z
   0 C     6.0000    0    12.011   12.914462   53.390066    4.924492
   1 C     6.0000    0    12.011   11.876368   50.695505    5.256893
   2 C     6.0000    0    12.011   13.045870   48.347190    3.940527
   3 C     6.0000    0    12.011   12.141131   45.531269    4.100927
   4 C     6.0000    0    12.011   13.317767   43.181843    2.775724
   5 C     6.0000    0    12.011   12.358013   40.442299    3.220730
   6 C     6.0000    0    12.011   13.298959   38.279767    1.485155
   7 C     6.0000    0    12.011   12.677417   35.590161    2.520099
   8 F     9.0000    0    18.998   12.807309   54.098547    2.504909
   9 F     9.0000    0    18.998   15.314114   53.526207    5.693734
  10 F     9.0000    0    18.998   11.611880   55.146277    6.263214
  11 F     9.0000    0    18.998   11.963556   50.254519    7.803940
  12 F     9.0000    0    18.998    9.405447   50.832569    4.509206
  13 F     9.0000    0    18.998   12.961958   48.925420    1.388563
  14 F     9.0000    0    18.998   15.529091   48.313827    4.742479
  15 F     9.0000    0    18.998   12.227656   44.960969    6.655818
  16 F     9.0000    0    18.998    9.656631   45.592937    3.316210
  17 F     9.0000    0    18.998   13.117058   43.617572    0.230790
  18 F     9.0000    0    18.998   15.823832   43.178927    3.418023
  19 F     9.0000    0    18.998   12.975360   39.808821    5.636274
  20 F     9.0000    0    18.998    9.794726   40.479045    3.050033
  21 F     9.0000    0    18.998   12.236366   38.624921   -0.837963
  22 F     9.0000    0    18.998   15.838755   38.581941    1.172883
  23 O     8.0000    0    15.999   14.429416   34.478322    3.586058
  24 O     8.0000    0    15.999   10.437853   34.913051    2.188932
  25 O     8.0000    0    15.999    6.214508   36.738440   -0.133292
  26 H     1.0000    0     1.008    5.818639   35.292363   -1.158143
  27 H     1.0000    0     1.008    7.821971   36.287829    0.675464

--------------------------------
INTERNAL COORDINATES (ANGSTROEM)
--------------------------------
 C      0   0   0     0.000000000000     0.00000000     0.00000000
 C      1   0   0     1.538148662873     0.00000000     0.00000000
 C      2   1   0     1.553217693944   123.23608175     0.00000000
 C      3   2   1     1.567444751604   127.92340899   180.91255388
 C      4   3   2     1.557295755359   127.76715632   179.93669120
 C      5   4   3     1.554039223824   123.08226699   175.78995605
 C      6   5   4     1.549518030688   119.61108327   169.08671765
 C      7   6   5     1.560077163374   113.44982799   166.80247238
 F      1   2   3     1.335353012689   110.77844004    60.68236681
 F      1   2   3     1.335435611834   110.77817455   300.20614789
 F      1   2   3     1.356715340025   113.19402390   180.43600282
 F      2   1   3     1.368669271433   104.98918309   122.45399629
 F      2   1   3     1.368030287774   105.01841504   237.37285876
 F      3   2   1     1.385384438303   104.34094751   302.93099855
 F      3   2   1     1.381003271447   104.56895516    57.85603005
 F      4   3   2     1.386019701725   104.46149399   301.89533205
 F      4   3   2     1.379146364345   104.61844415    56.71957327
 F      5   4   3     1.370439507036   106.09358567   298.23040542
 F      5   4   3     1.369016698237   106.04594089    53.61624662
 F      6   5   4     1.361257929593   107.07279265   291.26916871
 F      6   5   4     1.359576375109   107.61669219    46.90560300
 F      7   6   5     1.364119084312   107.62652188   289.48434882
 F      7   6   5     1.363531164378   107.57559128    43.71080153
 O      8   7   6     1.234464519573   115.90581422   259.62385348
 O      8   7   6     1.250448547167   114.33267310    77.99735972
 O     25   8   7     2.727261036634   137.58814219     4.37379906
 H     26  25   8     0.961031793527    98.67781750   127.12902697
 H     26  25   8     0.981630752637     6.97726244   347.31490978

---------------------------
INTERNAL COORDINATES (A.U.)
---------------------------
 C      0   0   0     0.000000000000     0.00000000     0.00000000
 C      1   0   0     2.906679726087     0.00000000     0.00000000
 C      2   1   0     2.935156067916   123.23608175     0.00000000
 C      3   2   1     2.962041310583   127.92340899   180.91255388
 C      4   3   2     2.942862487146   127.76715632   179.93669120
 C      5   4   3     2.936708534400   123.08226699   175.78995605
 C      6   5   4     2.928164717573   119.61108327   169.08671765
 C      7   6   5     2.948118586562   113.44982799   166.80247238
 F      1   2   3     2.523451486088   110.77844004    60.68236681
 F      1   2   3     2.523607575852   110.77817455   300.20614789
 F      1   2   3     2.563820434337   113.19402390   180.43600282
 F      2   1   3     2.586410090922   104.98918309   122.45399629
 F      2   1   3     2.585202586802   105.01841504   237.37285876
 F      3   2   1     2.617997178590   104.34094751   302.93099855
 F      3   2   1     2.609717973083   104.56895516    57.85603005
 F      4   3   2     2.619197652479   104.46149399   301.89533205
 F      4   3   2     2.606208927205   104.61844415    56.71957327
 F      5   4   3     2.589755351405   106.09358567   298.23040542
 F      5   4   3     2.587066632434   106.04594089    53.61624662
 F      6   5   4     2.572404684560   107.07279265   291.26916871
 F      6   5   4     2.569227007106   107.61669219    46.90560300
 F      7   6   5     2.577811483406   107.62652188   289.48434882
 F      7   6   5     2.576700475740   107.57559128    43.71080153
 O      8   7   6     2.332799864036   115.90581422   259.62385348
 O      8   7   6     2.363005298706   114.33267310    77.99735972
 O     25   8   7     5.153776454953   137.58814219     4.37379906
 H     26  25   8     1.816086895757    98.67781750   127.12902697
 H     26  25   8     1.855013287119     6.97726244   347.31490978

---------------------
BASIS SET INFORMATION
---------------------
There are 4 groups of distinct atoms

 Group   1 Type C   : 11s6p2d1f contracted to 5s3p2d1f pattern {62111/411/11/1}
 Group   2 Type F   : 11s6p2d1f contracted to 5s3p2d1f pattern {62111/411/11/1}
 Group   3 Type O   : 11s6p2d1f contracted to 5s3p2d1f pattern {62111/411/11/1}
 Group   4 Type H   : 5s1p contracted to 3s1p pattern {311/1}

Atom   0C    basis set group =>   1
Atom   1C    basis set group =>   1
Atom   2C    basis set group =>   1
Atom   3C    basis set group =>   1
Atom   4C    basis set group =>   1
Atom   5C    basis set group =>   1
Atom   6C    basis set group =>   1
Atom   7C    basis set group =>   1
Atom   8F    basis set group =>   2
Atom   9F    basis set group =>   2
Atom  10F    basis set group =>   2
Atom  11F    basis set group =>   2
Atom  12F    basis set group =>   2
Atom  13F    basis set group =>   2
Atom  14F    basis set group =>   2
Atom  15F    basis set group =>   2
Atom  16F    basis set group =>   2
Atom  17F    basis set group =>   2
Atom  18F    basis set group =>   2
Atom  19F    basis set group =>   2
Atom  20F    basis set group =>   2
Atom  21F    basis set group =>   2
Atom  22F    basis set group =>   2
Atom  23O    basis set group =>   3
Atom  24O    basis set group =>   3
Atom  25O    basis set group =>   3
Atom  26H    basis set group =>   4
Atom  27H    basis set group =>   4
---------------------------------
AUXILIARY/J BASIS SET INFORMATION
---------------------------------
There are 4 groups of distinct atoms

 Group   1 Type C   : 12s5p4d2f1g contracted to 6s4p3d1f1g pattern {711111/2111/211/2/1}
 Group   2 Type F   : 12s5p4d2f1g contracted to 6s4p3d1f1g pattern {711111/2111/211/2/1}
 Group   3 Type O   : 12s5p4d2f1g contracted to 6s4p3d1f1g pattern {711111/2111/211/2/1}
 Group   4 Type H   : 5s2p1d contracted to 3s1p1d pattern {311/2/1}

Atom   0C    basis set group =>   1
Atom   1C    basis set group =>   1
Atom   2C    basis set group =>   1
Atom   3C    basis set group =>   1
Atom   4C    basis set group =>   1
Atom   5C    basis set group =>   1
Atom   6C    basis set group =>   1
Atom   7C    basis set group =>   1
Atom   8F    basis set group =>   2
Atom   9F    basis set group =>   2
Atom  10F    basis set group =>   2
Atom  11F    basis set group =>   2
Atom  12F    basis set group =>   2
Atom  13F    basis set group =>   2
Atom  14F    basis set group =>   2
Atom  15F    basis set group =>   2
Atom  16F    basis set group =>   2
Atom  17F    basis set group =>   2
Atom  18F    basis set group =>   2
Atom  19F    basis set group =>   2
Atom  20F    basis set group =>   2
Atom  21F    basis set group =>   2
Atom  22F    basis set group =>   2
Atom  23O    basis set group =>   3
Atom  24O    basis set group =>   3
Atom  25O    basis set group =>   3
Atom  26H    basis set group =>   4
Atom  27H    basis set group =>   4


           ************************************************************
           *        Program running with 20 parallel MPI-processes    *
           *              working on a common directory               *
           ************************************************************
------------------------------------------------------------------------------
                             ORCA STARTUP CALCULATIONS
                           -- RI-GTO INTEGRALS CHOSEN --
------------------------------------------------------------------------------
------------------------------------------------------------------------------
                   ___                                                        
                  /   \      - P O W E R E D   B Y -                         
                 /     \                                                     
                 |  |  |   _    _      __       _____    __    __             
                 |  |  |  | |  | |    /  \     |  _  \  |  |  /  |          
                  \  \/   | |  | |   /    \    | | | |  |  | /  /          
                 / \  \   | |__| |  /  /\  \   | |_| |  |  |/  /          
                |  |  |   |  __  | /  /__\  \  |    /   |      \           
                |  |  |   | |  | | |   __   |  |    \   |  |\   \          
                \     /   | |  | | |  |  |  |  | |\  \  |  | \   \       
                 \___/    |_|  |_| |__|  |__|  |_| \__\ |__|  \__/        
                                                                              
                      - O R C A' S   B I G   F R I E N D -                    
                                      &                                       
                       - I N T E G R A L  F E E D E R -                       
                                                                              
 v1 FN, 2020, v2 2021, v3 2022-2024                                           
------------------------------------------------------------------------------


----------------------
SHARK INTEGRAL PACKAGE
----------------------

Number of atoms                             ...     28
Number of basis functions                   ...    818
Number of shells                            ...    294
Maximum angular momentum                    ...      3
Integral batch strategy                     ... SHARK/LIBINT Hybrid
RI-J (if used) integral strategy            ... SPLIT-RIJ (Revised 2003 algorithm where possible)
Printlevel                                  ...      1
Contraction scheme used                     ... SEGMENTED contraction
Prescreening option                         ... SCHWARTZ
   Thresh                                   ... 2.500e-11
   Tcut                                     ... 2.500e-12
   Tpresel                                  ... 2.500e-12 
Coulomb Range Separation                    ... NOT USED
Exchange Range Separation                   ... NOT USED
Multipole approximations                    ... NOT USED
Finite Nucleus Model                        ... NOT USED
CABS basis                                  ... NOT available
Auxiliary Coulomb fitting basis             ... AVAILABLE
   # of basis functions in Aux-J            ...   1296
   # of shells in Aux-J                     ...    400
   Maximum angular momentum in Aux-J        ...      4
Auxiliary J/K fitting basis                 ... NOT available
Auxiliary Correlation fitting basis         ... NOT available
Auxiliary 'external' fitting basis          ... NOT available

Checking pre-screening integrals            ... done (  0.0 sec) Dimension = 294
Check shell pair data                       ... done (  0.0 sec)
Shell pair information
Shell pair cut-off parameter TPreSel        ...   2.5e-12
Total number of shell pairs                 ...     43365
Shell pairs after pre-screening             ...     25154
Total number of primitive shell pairs       ...    142356
Primitive shell pairs kept                  ...     52832
          la=0 lb=0:   4874 shell pairs
          la=1 lb=0:   6956 shell pairs
          la=1 lb=1:   2374 shell pairs
          la=2 lb=0:   3701 shell pairs
          la=2 lb=1:   2680 shell pairs
          la=2 lb=2:    734 shell pairs
          la=3 lb=0:   1686 shell pairs
          la=3 lb=1:   1294 shell pairs
          la=3 lb=2:    692 shell pairs
          la=3 lb=3:    163 shell pairs

Calculating one electron integrals          ... done (  0.0 sec)
Calculating RI/J V-Matrix + Cholesky decomp.... done (  0.1 sec)
Calculating Nuclear repulsion               ... done (  0.0 sec) ENN=   3021.181564529709 Eh

Diagonalization of the overlap matrix:
Smallest eigenvalue                        ... 8.936e-05
Time for diagonalization                   ...    0.154 sec
Threshold for overlap eigenvalues          ... 1.000e-07
Number of eigenvalues below threshold      ... 0
Time for construction of square roots      ...    0.065 sec
Total time needed                          ...    0.226 sec

-------------------
DFT GRID GENERATION
-------------------

General Integration Accuracy     IntAcc      ... 4.388
Radial Grid Type                 RadialGrid  ... OptM3 with GC (2021)
Angular Grid (max. ang.)         AngularGrid ... 4 (Lebedev-302)
Angular grid pruning method      GridPruning ... 4 (adaptive)
Weight generation scheme         WeightScheme... mBecke (2022)
Basis function cutoff            BFCut       ... 1.0000e-11
Integration weight cutoff        WCut        ... 1.0000e-14
Partially contracted basis set               ... off
Rotationally invariant grid construction     ... off
Angular grids for H and He will be reduced by one unit

Total number of grid points                  ...   164099
Total number of batches                      ...     2576
Average number of points per batch           ...       63
Average number of grid points per atom       ...     5861

--------------------
COSX GRID GENERATION
--------------------

GRIDX 1
-------
General Integration Accuracy     IntAcc      ... 3.816
Radial Grid Type                 RadialGrid  ... OptM3 with GC (2021)
Angular Grid (max. ang.)         AngularGrid ... 1 (Lebedev-50)
Angular grid pruning method      GridPruning ... 4 (adaptive)
Weight generation scheme         WeightScheme... mBecke (2022)
Basis function cutoff            BFCut       ... 1.0000e-11
Integration weight cutoff        WCut        ... 1.0000e-14
Partially contracted basis set               ... on
Rotationally invariant grid construction     ... off
Angular grids for H and He will be reduced by one unit

Total number of grid points                  ...    20670
Total number of batches                      ...      173
Average number of points per batch           ...      119
Average number of grid points per atom       ...      738
UseSFitting                                  ... on

GRIDX 2
-------
General Integration Accuracy     IntAcc      ... 4.020
Radial Grid Type                 RadialGrid  ... OptM3 with GC (2021)
Angular Grid (max. ang.)         AngularGrid ... 2 (Lebedev-110)
Angular grid pruning method      GridPruning ... 4 (adaptive)
Weight generation scheme         WeightScheme... mBecke (2022)
Basis function cutoff            BFCut       ... 1.0000e-11
Integration weight cutoff        WCut        ... 1.0000e-14
Partially contracted basis set               ... on
Rotationally invariant grid construction     ... off
Angular grids for H and He will be reduced by one unit

Total number of grid points                  ...    48456
Total number of batches                      ...      393
Average number of points per batch           ...      123
Average number of grid points per atom       ...     1731
UseSFitting                                  ... on

GRIDX 3
-------
General Integration Accuracy     IntAcc      ... 4.338
Radial Grid Type                 RadialGrid  ... OptM3 with GC (2021)
Angular Grid (max. ang.)         AngularGrid ... 3 (Lebedev-194)
Angular grid pruning method      GridPruning ... 4 (adaptive)
Weight generation scheme         WeightScheme... mBecke (2022)
Basis function cutoff            BFCut       ... 1.0000e-11
Integration weight cutoff        WCut        ... 1.0000e-14
Partially contracted basis set               ... on
Rotationally invariant grid construction     ... off
Angular grids for H and He will be reduced by one unit

Total number of grid points                  ...   107163
Total number of batches                      ...      850
Average number of points per batch           ...      126
Average number of grid points per atom       ...     3827
UseSFitting                                  ... on
Initializing property integral containers    ... done (  0.0 sec)

SHARK setup successfully completed in   3.6 seconds

Maximum memory used throughout the entire STARTUP-calculation: 63.5 MB


           ************************************************************
           *        Program running with 20 parallel MPI-processes    *
           *              working on a common directory               *
           ************************************************************
-------------------------------------------------------------------------------
                                 ORCA GUESS
                   Start orbitals & Density for SCF / CASSCF
-------------------------------------------------------------------------------

------------
SCF SETTINGS
------------
Hamiltonian:
 Density Functional     Method          .... DFT(GTOs)
  Functional kind                       .... Exchange
  Functional name                       .... Re-regularized SCAN exchange by Furness et al
  Functional family                     .... MGGA
  Functional refs                              
    [ 0] J. W. Furness, A. D. Kaplan, J. Ning, J. P. Perdew, and J. Sun.,  J. Phys. Chem. Lett. 11, 8208-8215 (2020), doi: 10.1021/acs.jpclett.0c02405
    [ 1] J. W. Furness, A. D. Kaplan, J. Ning, J. P. Perdew, and J. Sun.,  J. Phys. Chem. Lett. 11, 9248-9248 (2020), doi: 10.1021/acs.jpclett.0c03077
  Functional external parameters        .... 6
    Parameter  0 _c1        =  6.670000e-01 : c1 parameter        
    Parameter  1 _c2        =  8.000000e-01 : c2 parameter        
    Parameter  2 _d         =  1.240000e+00 : d parameter         
    Parameter  3 _k1        =  6.500000e-02 : k1 parameter        
    Parameter  4 _eta       =  1.000000e-03 : eta parameter       
    Parameter  5 _dp2       =  3.610000e-01 : dp2 parameter       
  Functional kind                       .... Correlation
  Functional name                       .... Re-regularized SCAN correlation by Furness et al
  Functional family                     .... MGGA
  Functional refs                              
    [ 0] J. W. Furness, A. D. Kaplan, J. Ning, J. P. Perdew, and J. Sun.,  J. Phys. Chem. Lett. 11, 8208-8215 (2020), doi: 10.1021/acs.jpclett.0c02405
    [ 1] J. W. Furness, A. D. Kaplan, J. Ning, J. P. Perdew, and J. Sun.,  J. Phys. Chem. Lett. 11, 9248-9248 (2020), doi: 10.1021/acs.jpclett.0c03077
  Functional external parameters        .... 1
    Parameter  0 _eta       =  1.000000e-03 : Regularization parameter
 Gradients option       PostSCFGGA      .... off
 Hybrid DFT is turned on
   Fraction HF Exchange ScalHFX         ....  0.100000
   Scaling of DF-GGA-X  ScalDFX         ....  0.900000
   Scaling of DF-GGA-C  ScalDFC         ....  1.000000
   Scaling of DF-LDA-C  ScalLDAC        ....  1.000000
   Perturbative correction              ....  0.000000
   NL short-range parameter             .... 11.900000
 RI-approximation to the Coulomb term is turned on
   Number of AuxJ basis functions       .... 1296
   RIJ-COSX (HFX calculated with COS-X)).... on


General Settings:
 Integral files         IntName         .... rf_mecn_1H2O_freq_r2s_sw_04
 Hartree-Fock type      HFTyp           .... UHF
 Total Charge           Charge          ....   -2
 Multiplicity           Mult            ....    2
 Number of Electrons    NEL             ....  211
 Basis Dimension        Dim             ....  818
 Nuclear Repulsion      ENuc            ....   3021.1815645297 Eh

Convergence Acceleration:
 AO-DIIS                CNVDIIS         .... on
   Start iteration      DIISMaxIt       ....     0
   Startup error        DIISStart       ....  0.200000
   # of expansion vecs  DIISMaxEq       ....     5
   Bias factor          DIISBfac        ....   1.050
   Max. coefficient     DIISMaxC        ....  10.000
 MO-DIIS                CNVKDIIS        .... off
 Trust-Rad. Augm. Hess. CNVTRAH         .... auto
   Auto Start mean grad. ratio tolernc. ....  1.125000
   Auto Start start iteration           ....    50
   Auto Start num. interpolation iter.  ....    10
   Max. Number of Micro iterations      ....    24
   Max. Number of Macro iterations      .... Maxiter - #DIIS iter
   Number of Davidson start vectors     ....     2
   Converg. threshold    (grad. norm)   ....   1.000e-05
   Grad. Scal. Fac. for Micro threshold ....   0.100
   Minimum threshold for Micro iter.    ....   1.000e-02
   NR start threshold (gradient norm)   ....   1.000e-04
   Initial trust radius                 ....   0.400
   Minimum AH scaling param. (alpha)    ....   1.000
   Maximum AH scaling param. (alpha)    .... 1000.000
   Quad. conv. algorithm                .... NR
   White noise on init. David. guess    .... on
   Maximum white noise                  ....   0.010
   Pseudo random numbers                .... off
   Inactive MOs                         .... canonical
   Orbital update algorithm             .... Taylor
   Preconditioner                       .... Diag
   Full preconditioner red. dimension   ....   250
 SOSCF                  CNVSOSCF        .... on
   Start iteration      SOSCFMaxIt      ....   150
   Startup grad/error   SOSCFStart      ....  0.001000
   Hessian update       SOSCFHessUp     .... L-BFGS
 Level Shifting         CNVShift        .... on
   Level shift para.    LevelShift      ....    0.2500
   Turn off err/grad.   ShiftErr        ....    0.0000
 Zerner damping         CNVZerner       .... off
 Static damping         CNVDamp         .... on
   Fraction old density DampFac         ....    0.8500
   Max. Damping (<1)    DampMax         ....    0.9800
   Min. Damping (>=0)   DampMin         ....    0.0000
   Turn off err/grad.   DampErr         ....    0.0300

SCF Procedure:
 Maximum # iterations   MaxIter         ....  1500
 SCF integral mode      SCFMode         .... Direct
   Integral package                     .... SHARK and LIBINT hybrid scheme
 Reset frequency        DirectResetFreq ....    20
 Integral Threshold     Thresh          ....  2.500e-11 Eh
 Primitive CutOff       TCut            ....  2.500e-12 Eh

Convergence Tolerance:
 Convergence Check Mode ConvCheckMode   .... Total+1el-Energy
 Convergence forced     ConvForced      .... 0
 Energy Change          TolE            ....  1.000e-08 Eh
 1-El. energy change                    ....  1.000e-05 Eh
 Orbital Gradient       TolG            ....  1.000e-05
 Orbital Rotation angle TolX            ....  1.000e-05
 DIIS Error             TolErr          ....  5.000e-07

------------------------------
INITIAL GUESS: MODEL POTENTIAL
------------------------------
Loading Hartree-Fock densities                     ... done
Calculating cut-offs                               ... done
Initializing the effective Hamiltonian             ... done
Setting up the integral package (SHARK)            ... done
Starting the Coulomb interaction                   ... done (   0.2 sec)
Making the grid                                    ... done (   0.4 sec)
Mapping shells                                     ... done
Starting the XC term evaluation                    ... done (   0.1 sec)
  promolecular density results
     # of electrons  =    208.998106913
     EX              =   -215.898501473
     EC              =     -7.313794376
     EX+EC           =   -223.212295849
Transforming the Hamiltonian                       ... done (   0.1 sec)
Diagonalizing the Hamiltonian                      ... done (   0.2 sec)
Back transforming the eigenvectors                 ... done (   0.0 sec)
Now organizing SCF variables                       ... done
                      ------------------
                      INITIAL GUESS DONE (   1.2 sec)
                      ------------------
             **** ENERGY FILE WAS UPDATED (rf_mecn_1H2O_freq_r2s_sw_04.en.tmp) ****
Finished Guess after   1.9 sec
Maximum memory used throughout the entire GUESS-calculation: 52.4 MB


           ************************************************************
           *        Program running with 20 parallel MPI-processes    *
           *              working on a common directory               *
           ************************************************************

-------------------------------------------------------------------------------------------
                                      ORCA LEAN-SCF
                              memory conserving SCF solver
-------------------------------------------------------------------------------------------

--------------------
CPCM SOLVATION MODEL
--------------------
CPCM parameters:
  Epsilon                                         ...      35.6880
  Refrac                                          ...       1.3442
  Rsolv                                           ...       1.3000
  Surface type                                    ... GAUSSIAN VDW
  Discretization scheme                           ... Constant charge density
    Threshold for H atoms                         ...       5.0000 (charges/Ang^2)
    Threshold for non-H atoms                     ...       5.0000 (charges/Ang^2)
  Epsilon function type                           ...         CPCM
Solvent:                                          ... ACETONITRILE
SMD-CDS solvent descriptors:
  Soln                                            ...       1.3442
  Soln25                                          ...       1.3416
  Sola                                            ...       0.0700
  Solb                                            ...       0.3200
  Solg                                            ...      41.2500
  Solc                                            ...       0.0000
  Solh                                            ...       0.0000
Radii:
  Scheme                                          ... Element-dependent radii
  Radius for C  used is    3.4960 Bohr (=   1.8500 Ang.)
  Radius for F  used is    3.2692 Bohr (=   1.7300 Ang.)
  Radius for O  used is    4.0969 Bohr (=   2.1680 Ang.)
  Radius for H  used is    2.2677 Bohr (=   1.2000 Ang.)
Calculating surface                               ...        done! (  0.0s)
Cavity surface points                             ...         2425
Cavity Volume                                     ...    2415.1795
Cavity Surface-area                               ...    1246.2323
Calculating surface distance matrix               ...        done! (  0.0s)
Performing Cholesky decomposition & store         ...        done! (  0.1s)
Overall time for CPCM initialization              ...                 0.2s

----------------------------------------D-I-I-S--------------------------------------------
Iteration    Energy (Eh)           Delta-E    RMSDP     MaxDP     DIISErr   Damp  Time(sec)
-------------------------------------------------------------------------------------------
               ***  Starting incremental Fock matrix formation  ***
    1    -2028.7557823938013826     0.00e+00  5.72e-04  8.62e-02  1.81e-01  0.850   8.7
Warning: op=0 Small HOMO/LUMO gap (  -0.002) - skipping pre-diagonalization
         Will do a full diagonalization
    2    -2028.9836839908448383    -2.28e-01  7.74e-04  1.52e-01  1.23e-01  0.850   6.2
                               ***Turning on AO-DIIS***
    3    -2029.1033931905631107    -1.20e-01  5.25e-04  1.16e-01  7.61e-02  0.850   5.6
    4    -2029.1709118300204864    -6.75e-02  3.72e-04  8.62e-02  5.51e-02  0.850   5.5
    5    -2029.2204589165594371    -4.95e-02  2.71e-04  5.41e-02  4.27e-02  0.850   5.5
    6    -2029.2607686227975137    -4.03e-02  2.05e-04  3.22e-02  3.49e-02  0.850   5.5
    7    -2029.2947513006620284    -3.40e-02  1.61e-04  1.85e-02  2.96e-02  0.850   5.5
    8    -2029.3238061971132993    -2.91e-02  9.03e-04  9.79e-02  2.55e-02  0.000   5.5
    9    -2029.4858896104387895    -1.62e-01  6.19e-05  7.24e-03  5.76e-03  0.000   5.7
   10    -2029.4865411931632480    -6.52e-04  6.42e-05  1.41e-02  3.04e-03  0.000   5.2
   11    -2029.4868334489765402    -2.92e-04  5.26e-05  1.22e-02  1.21e-03  0.000   5.0
                              *** Initializing SOSCF ***
---------------------------------------S-O-S-C-F--------------------------------------
Iteration    Energy (Eh)           Delta-E    RMSDP     MaxDP     MaxGrad    Time(sec)
--------------------------------------------------------------------------------------
   12    -2029.4869629206050377    -1.29e-04  2.95e-05  6.43e-03  7.22e-04     5.8
               *** Restarting incremental Fock matrix formation ***
   13    -2029.4870184340634296    -5.55e-05  6.81e-05  1.75e-02  1.57e-03     9.2
   14    -2029.4870577801993932    -3.93e-05  6.16e-05  1.53e-02  8.79e-04     6.8
   15    -2029.4870541747459356     3.61e-06  3.35e-05  8.18e-03  1.10e-03     6.9
   16    -2029.4870725094997397    -1.83e-05  5.03e-06  9.92e-04  7.37e-05     6.3
   17    -2029.4870724363745467     7.31e-08  2.03e-06  2.88e-04  9.80e-05     5.9
   18    -2029.4870729786471202    -5.42e-07  9.77e-07  2.31e-04  2.75e-05     5.6
   19    -2029.4870729607173416     1.79e-08  4.05e-07  8.19e-05  2.20e-05     4.6
   20    -2029.4870730177335645    -5.70e-08  3.57e-07  1.25e-04  3.78e-06     4.6
   21    -2029.4870730093480233     8.39e-09  2.08e-07  6.90e-05  3.18e-06     4.0
                 **** Energy Check signals convergence ****

               *****************************************************
               *                     SUCCESS                       *
               *           SCF CONVERGED AFTER  21 CYCLES          *
               *****************************************************

Recomputing exchange energy using gridx3       ... done (   10.333 sec)
Old exchange energy                            :    -21.833346471 Eh
New exchange energy                            :    -21.833387724 Eh
Exchange energy change after final integration :     -0.000041253 Eh
Total energy after final integration           :  -2029.487114262 Eh

SMD CDS free energy correction energy :                 3.11713     Kcal/mol
Total Energy after SMD CDS correction =             -2029.482146802 Eh
             **** ENERGY FILE WAS UPDATED (rf_mecn_1H2O_freq_r2s_sw_04.en.tmp) ****

----------------
TOTAL SCF ENERGY
----------------

Total Energy       :      -2029.48214680192132 Eh          -55225.01680 eV

Components:
Nuclear Repulsion  :       3021.18156452970925 Eh           82210.52987 eV
Electronic Energy  :      -5050.43585855327819 Eh         -137429.34648 eV
One Electron Energy:      -8894.59102242192603 Eh         -242034.12650 eV
Two Electron Energy:       3844.15516386864783 Eh          104604.78001 eV
CPCM Dielectric    :         -0.23277898577909 Eh              -6.33424 eV
SMD CDS (Gcds)     :          0.00496746024927 Eh               0.13517 eV

Virial components:
Potential Energy   :      -4052.23976360545294 Eh         -110267.04984 eV
Kinetic Energy     :       2022.75761680353139 Eh           55042.03304 eV
Virial Ratio       :          2.00332443686902

DFT components:
N(Alpha)           :      105.999975389117 electrons
N(Beta)            :      104.999965463529 electrons
N(Total)           :      210.999940852647 electrons
E(X)               :     -197.590627706865 Eh       
E(C)               :       -7.333221357330 Eh       
E(XC)              :     -204.923849064194 Eh       

CPCM Solvation Model Properties:
Surface-charge          :          1.98938518453827
Corrected charge        :          2.00000000000000
Outlying charge corr.   :          0.00000582853179 Eh               0.00016 eV
Free-energy (cav+disp)  :          0.00496746024927 Eh               0.13517 eV

---------------
SCF CONVERGENCE
---------------

  Last Energy change         ...   -8.3855e-09  Tolerance :   1.0000e-08
  Last MAX-Density change    ...    6.9023e-05  Tolerance :   1.0000e-07
  Last RMS-Density change    ...    2.0838e-07  Tolerance :   5.0000e-09
  Last DIIS Error            ...    7.2212e-04  Tolerance :   5.0000e-07
  Last Orbital Gradient      ...    3.1755e-06  Tolerance :   1.0000e-05
  Last Orbital Rotation      ...    9.7821e-06  Tolerance :   1.0000e-05


----------------------
UHF SPIN CONTAMINATION
----------------------

Warning: in a DFT calculation there is little theoretical justification to 
         calculate <S**2> as in Hartree-Fock theory. We will do it anyways
         but you should keep in mind that the values have only limited relevance

Expectation value of <S**2>     :     0.754578
Ideal value S*(S+1) for S=0.5   :     0.750000
Deviation                       :     0.004578

----------------
ORBITAL ENERGIES
----------------
                 SPIN UP ORBITALS
  NO   OCC          E(Eh)            E(eV) 
   0   1.0000     -24.707384      -672.3221 
   1   1.0000     -24.707274      -672.3191 
   2   1.0000     -24.699497      -672.1075 
   3   1.0000     -24.689238      -671.8283 
   4   1.0000     -24.689037      -671.8228 
   5   1.0000     -24.686026      -671.7409 
   6   1.0000     -24.683290      -671.6665 
   7   1.0000     -24.680689      -671.5957 
   8   1.0000     -24.679414      -671.5610 
   9   1.0000     -24.674957      -671.4397 
  10   1.0000     -24.673703      -671.4056 
  11   1.0000     -24.672937      -671.3848 
  12   1.0000     -24.672062      -671.3610 
  13   1.0000     -24.671974      -671.3585 
  14   1.0000     -24.670998      -671.3320 
  15   1.0000     -19.066739      -518.8323 
  16   1.0000     -19.049968      -518.3760 
  17   1.0000     -19.045594      -518.2570 
  18   1.0000     -10.405682      -283.1530 
  19   1.0000     -10.333951      -281.2011 
  20   1.0000     -10.328203      -281.0447 
  21   1.0000     -10.323810      -280.9252 
  22   1.0000     -10.318079      -280.7692 
  23   1.0000     -10.314652      -280.6760 
  24   1.0000     -10.308609      -280.5115 
  25   1.0000     -10.230566      -278.3879 
  26   1.0000      -1.327937       -36.1350 
  27   1.0000      -1.280548       -34.8455 
  28   1.0000      -1.273123       -34.6434 
  29   1.0000      -1.261107       -34.3165 
  30   1.0000      -1.253120       -34.0991 
  31   1.0000      -1.250435       -34.0261 
  32   1.0000      -1.242652       -33.8143 
  33   1.0000      -1.240115       -33.7453 
  34   1.0000      -1.231117       -33.5004 
  35   1.0000      -1.217879       -33.1402 
  36   1.0000      -1.216322       -33.0978 
  37   1.0000      -1.206219       -32.8229 
  38   1.0000      -1.199818       -32.6487 
  39   1.0000      -1.196262       -32.5519 
  40   1.0000      -1.192373       -32.4461 
  41   1.0000      -1.027000       -27.9461 
  42   1.0000      -0.967726       -26.3332 
  43   1.0000      -0.939966       -25.5778 
  44   1.0000      -0.790387       -21.5075 
  45   1.0000      -0.782607       -21.2958 
  46   1.0000      -0.753649       -20.5078 
  47   1.0000      -0.721501       -19.6330 
  48   1.0000      -0.682186       -18.5632 
  49   1.0000      -0.649993       -17.6872 
  50   1.0000      -0.625130       -17.0107 
  51   1.0000      -0.596355       -16.2276 
  52   1.0000      -0.594785       -16.1849 
  53   1.0000      -0.593383       -16.1468 
  54   1.0000      -0.580164       -15.7871 
  55   1.0000      -0.573780       -15.6134 
  56   1.0000      -0.570214       -15.5163 
  57   1.0000      -0.559863       -15.2347 
  58   1.0000      -0.557081       -15.1590 
  59   1.0000      -0.546910       -14.8822 
  60   1.0000      -0.545264       -14.8374 
  61   1.0000      -0.539803       -14.6888 
  62   1.0000      -0.531726       -14.4690 
  63   1.0000      -0.526747       -14.3335 
  64   1.0000      -0.521175       -14.1819 
  65   1.0000      -0.512132       -13.9358 
  66   1.0000      -0.485699       -13.2165 
  67   1.0000      -0.465007       -12.6535 
  68   1.0000      -0.464656       -12.6439 
  69   1.0000      -0.459034       -12.4910 
  70   1.0000      -0.447730       -12.1833 
  71   1.0000      -0.444226       -12.0880 
  72   1.0000      -0.441868       -12.0238 
  73   1.0000      -0.439623       -11.9627 
  74   1.0000      -0.436515       -11.8782 
  75   1.0000      -0.432928       -11.7806 
  76   1.0000      -0.432656       -11.7732 
  77   1.0000      -0.429629       -11.6908 
  78   1.0000      -0.426671       -11.6103 
  79   1.0000      -0.423505       -11.5241 
  80   1.0000      -0.417715       -11.3666 
  81   1.0000      -0.415968       -11.3191 
  82   1.0000      -0.409577       -11.1452 
  83   1.0000      -0.405486       -11.0338 
  84   1.0000      -0.404038       -10.9944 
  85   1.0000      -0.403902       -10.9907 
  86   1.0000      -0.398278       -10.8377 
  87   1.0000      -0.393974       -10.7206 
  88   1.0000      -0.392110       -10.6698 
  89   1.0000      -0.389559       -10.6004 
  90   1.0000      -0.388028       -10.5588 
  91   1.0000      -0.385264       -10.4836 
  92   1.0000      -0.382253       -10.4016 
  93   1.0000      -0.382099       -10.3974 
  94   1.0000      -0.374892       -10.2013 
  95   1.0000      -0.372264       -10.1298 
  96   1.0000      -0.365689        -9.9509 
  97   1.0000      -0.355063        -9.6617 
  98   1.0000      -0.336753        -9.1635 
  99   1.0000      -0.331145        -9.0109 
 100   1.0000      -0.299234        -8.1426 
 101   1.0000      -0.264168        -7.1884 
 102   1.0000      -0.241268        -6.5652 
 103   1.0000      -0.227130        -6.1805 
 104   1.0000      -0.221523        -6.0279 
 105   1.0000      -0.066201        -1.8014 
 106   0.0000       0.016780         0.4566 
 107   0.0000       0.041749         1.1360 
 108   0.0000       0.056389         1.5344 
 109   0.0000       0.070285         1.9126 
 110   0.0000       0.088205         2.4002 
 111   0.0000       0.100331         2.7301 
 112   0.0000       0.121920         3.3176 
 113   0.0000       0.128543         3.4978 
 114   0.0000       0.136405         3.7118 
 115   0.0000       0.145687         3.9643 
 116   0.0000       0.158449         4.3116 

                 SPIN DOWN ORBITALS
  NO   OCC          E(Eh)            E(eV) 
   0   1.0000     -24.707354      -672.3213 
   1   1.0000     -24.707242      -672.3182 
   2   1.0000     -24.698129      -672.0703 
   3   1.0000     -24.688805      -671.8165 
   4   1.0000     -24.688594      -671.8108 
   5   1.0000     -24.685919      -671.7380 
   6   1.0000     -24.683105      -671.6614 
   7   1.0000     -24.680324      -671.5858 
   8   1.0000     -24.679022      -671.5503 
   9   1.0000     -24.674259      -671.4207 
  10   1.0000     -24.672941      -671.3849 
  11   1.0000     -24.672857      -671.3826 
  12   1.0000     -24.671864      -671.3555 
  13   1.0000     -24.671413      -671.3433 
  14   1.0000     -24.670274      -671.3123 
  15   1.0000     -19.066740      -518.8324 
  16   1.0000     -19.049706      -518.3688 
  17   1.0000     -19.045256      -518.2478 
  18   1.0000     -10.404130      -283.1108 
  19   1.0000     -10.331574      -281.1364 
  20   1.0000     -10.326899      -281.0092 
  21   1.0000     -10.321372      -280.8588 
  22   1.0000     -10.314431      -280.6699 
  23   1.0000     -10.311022      -280.5772 
  24   1.0000     -10.307994      -280.4948 
  25   1.0000     -10.230281      -278.3801 
  26   1.0000      -1.326842       -36.1052 
  27   1.0000      -1.279391       -34.8140 
  28   1.0000      -1.271486       -34.5989 
  29   1.0000      -1.259792       -34.2807 
  30   1.0000      -1.252761       -34.0894 
  31   1.0000      -1.248767       -33.9807 
  32   1.0000      -1.242531       -33.8110 
  33   1.0000      -1.238268       -33.6950 
  34   1.0000      -1.229022       -33.4434 
  35   1.0000      -1.217206       -33.1219 
  36   1.0000      -1.215624       -33.0788 
  37   1.0000      -1.205470       -32.8025 
  38   1.0000      -1.198709       -32.6185 
  39   1.0000      -1.196025       -32.5455 
  40   1.0000      -1.191144       -32.4127 
  41   1.0000      -1.026431       -27.9306 
  42   1.0000      -0.967710       -26.3327 
  43   1.0000      -0.939449       -25.5637 
  44   1.0000      -0.779586       -21.2136 
  45   1.0000      -0.774700       -21.0807 
  46   1.0000      -0.743878       -20.2419 
  47   1.0000      -0.714146       -19.4329 
  48   1.0000      -0.677715       -18.4416 
  49   1.0000      -0.647226       -17.6119 
  50   1.0000      -0.622462       -16.9380 
  51   1.0000      -0.595505       -16.2045 
  52   1.0000      -0.591586       -16.0979 
  53   1.0000      -0.588977       -16.0269 
  54   1.0000      -0.577613       -15.7176 
  55   1.0000      -0.569715       -15.5027 
  56   1.0000      -0.568656       -15.4739 
  57   1.0000      -0.558506       -15.1977 
  58   1.0000      -0.552512       -15.0346 
  59   1.0000      -0.545438       -14.8421 
  60   1.0000      -0.541139       -14.7251 
  61   1.0000      -0.537860       -14.6359 
  62   1.0000      -0.530691       -14.4408 
  63   1.0000      -0.521944       -14.2028 
  64   1.0000      -0.518255       -14.1024 
  65   1.0000      -0.511200       -13.9104 
  66   1.0000      -0.485596       -13.2137 
  67   1.0000      -0.464242       -12.6327 
  68   1.0000      -0.462912       -12.5965 
  69   1.0000      -0.458422       -12.4743 
  70   1.0000      -0.447194       -12.1688 
  71   1.0000      -0.443587       -12.0706 
  72   1.0000      -0.441399       -12.0111 
  73   1.0000      -0.439163       -11.9502 
  74   1.0000      -0.435671       -11.8552 
  75   1.0000      -0.432309       -11.7637 
  76   1.0000      -0.431677       -11.7465 
  77   1.0000      -0.428798       -11.6682 
  78   1.0000      -0.425657       -11.5827 
  79   1.0000      -0.422826       -11.5057 
  80   1.0000      -0.416648       -11.3376 
  81   1.0000      -0.414875       -11.2893 
  82   1.0000      -0.408891       -11.1265 
  83   1.0000      -0.404336       -11.0026 
  84   1.0000      -0.403565       -10.9816 
  85   1.0000      -0.402936       -10.9644 
  86   1.0000      -0.397175       -10.8077 
  87   1.0000      -0.392637       -10.6842 
  88   1.0000      -0.391580       -10.6554 
  89   1.0000      -0.388959       -10.5841 
  90   1.0000      -0.386394       -10.5143 
  91   1.0000      -0.381734       -10.3875 
  92   1.0000      -0.379789       -10.3346 
  93   1.0000      -0.379302       -10.3213 
  94   1.0000      -0.370857       -10.0915 
  95   1.0000      -0.370293       -10.0762 
  96   1.0000      -0.358063        -9.7434 
  97   1.0000      -0.349218        -9.5027 
  98   1.0000      -0.336502        -9.1567 
  99   1.0000      -0.326730        -8.8908 
 100   1.0000      -0.296586        -8.0705 
 101   1.0000      -0.264148        -7.1878 
 102   1.0000      -0.239939        -6.5291 
 103   1.0000      -0.226430        -6.1615 
 104   1.0000      -0.220687        -6.0052 
 105   0.0000      -0.010298        -0.2802 
 106   0.0000       0.028215         0.7678 
 107   0.0000       0.048516         1.3202 
 108   0.0000       0.063690         1.7331 
 109   0.0000       0.081230         2.2104 
 110   0.0000       0.089268         2.4291 
 111   0.0000       0.106497         2.8979 
 112   0.0000       0.127667         3.4740 
 113   0.0000       0.133891         3.6434 
 114   0.0000       0.137671         3.7462 
 115   0.0000       0.152394         4.1468 
*Only the first 10 virtual orbitals were printed.

                    ********************************
                    * MULLIKEN POPULATION ANALYSIS *
                    ********************************

--------------------------------------------
MULLIKEN ATOMIC CHARGES AND SPIN POPULATIONS
--------------------------------------------
   0 C :    0.442388    0.071509
   1 C :    0.289034    0.129591
   2 C :    0.218241    0.237131
   3 C :    0.239893    0.245809
   4 C :    0.275172    0.149705
   5 C :    0.259366    0.068314
   6 C :    0.342584    0.030012
   7 C :    0.257608    0.011893
   8 F :   -0.179638   -0.000948
   9 F :   -0.179771   -0.000978
  10 F :   -0.190160    0.015025
  11 F :   -0.209837    0.002953
  12 F :   -0.209206    0.002941
  13 F :   -0.232395    0.004520
  14 F :   -0.229501    0.004046
  15 F :   -0.234306    0.003760
  16 F :   -0.229138    0.003234
  17 F :   -0.218555    0.001097
  18 F :   -0.217417    0.001486
  19 F :   -0.211508    0.000468
  20 F :   -0.204112    0.001080
  21 F :   -0.222422    0.000523
  22 F :   -0.219791    0.000715
  23 O :   -0.511077    0.009182
  24 O :   -0.568676    0.006960
  25 O :   -0.751822   -0.000030
  26 H :    0.332236    0.000016
  27 H :    0.362811   -0.000014
Sum of atomic charges         :   -2.0000000
Sum of atomic spin populations:    1.0000000

-----------------------------------------------------
MULLIKEN REDUCED ORBITAL CHARGES AND SPIN POPULATIONS
-----------------------------------------------------
CHARGE
  0 C s       :     3.043666  s :     3.043666
      pz      :     0.630073  p :     2.137109
      px      :     0.672277
      py      :     0.834759
      dz2     :     0.069272  d :     0.337806
      dxz     :     0.079612
      dyz     :     0.062655
      dx2y2   :     0.064577
      dxy     :     0.061690
      f0      :     0.005024  f :     0.039030
      f+1     :     0.008486
      f-1     :     0.006448
      f+2     :     0.005555
      f-2     :     0.003722
      f+3     :     0.003340
      f-3     :     0.006456

  1 C s       :     3.098546  s :     3.098546
      pz      :     0.664883  p :     2.301515
      px      :     0.713003
      py      :     0.923629
      dz2     :     0.058201  d :     0.284612
      dxz     :     0.064834
      dyz     :     0.051112
      dx2y2   :     0.059897
      dxy     :     0.050568
      f0      :     0.004135  f :     0.026293
      f+1     :     0.006694
      f-1     :     0.004387
      f+2     :     0.002822
      f-2     :     0.001547
      f+3     :     0.002321
      f-3     :     0.004388

  2 C s       :     3.142504  s :     3.142504
      pz      :     0.662195  p :     2.320997
      px      :     0.734829
      py      :     0.923973
      dz2     :     0.056972  d :     0.292900
      dxz     :     0.060403
      dyz     :     0.055845
      dx2y2   :     0.070859
      dxy     :     0.048821
      f0      :     0.004130  f :     0.025357
      f+1     :     0.006121
      f-1     :     0.003853
      f+2     :     0.002928
      f-2     :     0.001826
      f+3     :     0.002176
      f-3     :     0.004324

  3 C s       :     3.133597  s :     3.133597
      pz      :     0.673030  p :     2.311493
      px      :     0.738596
      py      :     0.899867
      dz2     :     0.057204  d :     0.289674
      dxz     :     0.059960
      dyz     :     0.054431
      dx2y2   :     0.069496
      dxy     :     0.048582
      f0      :     0.004149  f :     0.025344
      f+1     :     0.006100
      f-1     :     0.003881
      f+2     :     0.002914
      f-2     :     0.001760
      f+3     :     0.002180
      f-3     :     0.004360

  4 C s       :     3.128092  s :     3.128092
      pz      :     0.664885  p :     2.286109
      px      :     0.703629
      py      :     0.917594
      dz2     :     0.055068  d :     0.284485
      dxz     :     0.065013
      dyz     :     0.053466
      dx2y2   :     0.061483
      dxy     :     0.049456
      f0      :     0.004355  f :     0.026142
      f+1     :     0.006194
      f-1     :     0.004367
      f+2     :     0.003023
      f-2     :     0.001414
      f+3     :     0.002187
      f-3     :     0.004602

  5 C s       :     3.149961  s :     3.149961
      pz      :     0.687090  p :     2.286992
      px      :     0.652501
      py      :     0.947401
      dz2     :     0.050421  d :     0.276841
      dxz     :     0.067288
      dyz     :     0.050051
      dx2y2   :     0.054598
      dxy     :     0.054483
      f0      :     0.005548  f :     0.026840
      f+1     :     0.004171
      f-1     :     0.003946
      f+2     :     0.004344
      f-2     :     0.001564
      f+3     :     0.002143
      f-3     :     0.005124

  6 C s       :     3.095674  s :     3.095674
      pz      :     0.686071  p :     2.281099
      px      :     0.606158
      py      :     0.988870
      dz2     :     0.044992  d :     0.254522
      dxz     :     0.060025
      dyz     :     0.046771
      dx2y2   :     0.049547
      dxy     :     0.053187
      f0      :     0.005534  f :     0.026122
      f+1     :     0.003394
      f-1     :     0.003318
      f+2     :     0.004381
      f-2     :     0.002380
      f+3     :     0.002526
      f-3     :     0.004589

  7 C s       :     3.022980  s :     3.022980
      pz      :     0.818614  p :     2.451137
      px      :     0.742262
      py      :     0.890260
      dz2     :     0.027431  d :     0.243587
      dxz     :     0.060135
      dyz     :     0.017823
      dx2y2   :     0.066247
      dxy     :     0.071951
      f0      :     0.002111  f :     0.024689
      f+1     :     0.003004
      f-1     :     0.001860
      f+2     :     0.003982
      f-2     :     0.002748
      f+3     :     0.006269
      f-3     :     0.004714

  8 F s       :     3.920464  s :     3.920464
      pz      :     1.489360  p :     5.241682
      px      :     1.891247
      py      :     1.861074
      dz2     :     0.007904  d :     0.016744
      dxz     :     0.003285
      dyz     :     0.004632
      dx2y2   :     0.000537
      dxy     :     0.000387
      f0      :     0.000303  f :     0.000748
      f+1     :     0.000140
      f-1     :     0.000224
      f+2     :     0.000043
      f-2     :     0.000034
      f+3     :     0.000002
      f-3     :     0.000003

  9 F s       :     3.920522  s :     3.920522
      pz      :     1.852407  p :     5.241763
      px      :     1.491862
      py      :     1.897493
      dz2     :     0.002189  d :     0.016738
      dxz     :     0.004596
      dyz     :     0.000464
      dx2y2   :     0.005964
      dxy     :     0.003523
      f0      :     0.000076  f :     0.000748
      f+1     :     0.000131
      f-1     :     0.000006
      f+2     :     0.000161
      f-2     :     0.000038
      f+3     :     0.000197
      f-3     :     0.000139

 10 F s       :     3.918550  s :     3.918550
      pz      :     1.783877  p :     5.255165
      px      :     1.792100
      py      :     1.679188
      dz2     :     0.002145  d :     0.015759
      dxz     :     0.002702
      dyz     :     0.004075
      dx2y2   :     0.002914
      dxy     :     0.003922
      f0      :     0.000080  f :     0.000687
      f+1     :     0.000055
      f-1     :     0.000086
      f+2     :     0.000083
      f-2     :     0.000189
      f+3     :     0.000104
      f-3     :     0.000090

 11 F s       :     3.922126  s :     3.922126
      pz      :     1.475196  p :     5.271687
      px      :     1.896301
      py      :     1.900190
      dz2     :     0.007822  d :     0.015382
      dxz     :     0.003036
      dyz     :     0.003925
      dx2y2   :     0.000396
      dxy     :     0.000204
      f0      :     0.000303  f :     0.000642
      f+1     :     0.000130
      f-1     :     0.000173
      f+2     :     0.000020
      f-2     :     0.000014
      f+3     :     0.000001
      f-3     :     0.000002

 12 F s       :     3.922246  s :     3.922246
      pz      :     1.863350  p :     5.270896
      px      :     1.495403
      py      :     1.912142
      dz2     :     0.001986  d :     0.015421
      dxz     :     0.004133
      dyz     :     0.000354
      dx2y2   :     0.005548
      dxy     :     0.003400
      f0      :     0.000066  f :     0.000644
      f+1     :     0.000110
      f-1     :     0.000007
      f+2     :     0.000136
      f-2     :     0.000029
      f+3     :     0.000172
      f-3     :     0.000125

 13 F s       :     3.922186  s :     3.922186
      pz      :     1.496459  p :     5.295097
      px      :     1.899986
      py      :     1.898652
      dz2     :     0.007158  d :     0.014519
      dxz     :     0.002824
      dyz     :     0.003830
      dx2y2   :     0.000473
      dxy     :     0.000235
      f0      :     0.000264  f :     0.000593
      f+1     :     0.000115
      f-1     :     0.000170
      f+2     :     0.000023
      f-2     :     0.000017
      f+3     :     0.000001
      f-3     :     0.000002

 14 F s       :     3.922366  s :     3.922366
      pz      :     1.862992  p :     5.291770
      px      :     1.510275
      py      :     1.918502
      dz2     :     0.001848  d :     0.014761
      dxz     :     0.004057
      dyz     :     0.000377
      dx2y2   :     0.005300
      dxy     :     0.003179
      f0      :     0.000063  f :     0.000604
      f+1     :     0.000100
      f-1     :     0.000005
      f+2     :     0.000132
      f-2     :     0.000029
      f+3     :     0.000163
      f-3     :     0.000112

 15 F s       :     3.921358  s :     3.921358
      pz      :     1.498072  p :     5.297924
      px      :     1.900221
      py      :     1.899631
      dz2     :     0.007121  d :     0.014434
      dxz     :     0.002795
      dyz     :     0.003799
      dx2y2   :     0.000480
      dxy     :     0.000239
      f0      :     0.000264  f :     0.000590
      f+1     :     0.000114
      f-1     :     0.000169
      f+2     :     0.000023
      f-2     :     0.000017
      f+3     :     0.000001
      f-3     :     0.000002

 16 F s       :     3.921244  s :     3.921244
      pz      :     1.864630  p :     5.292453
      px      :     1.509417
      py      :     1.918406
      dz2     :     0.001873  d :     0.014830
      dxz     :     0.004028
      dyz     :     0.000374
      dx2y2   :     0.005361
      dxy     :     0.003195
      f0      :     0.000063  f :     0.000611
      f+1     :     0.000102
      f-1     :     0.000006
      f+2     :     0.000132
      f-2     :     0.000029
      f+3     :     0.000166
      f-3     :     0.000114

 17 F s       :     3.921972  s :     3.921972
      pz      :     1.481623  p :     5.280687
      px      :     1.895243
      py      :     1.903821
      dz2     :     0.007699  d :     0.015262
      dxz     :     0.003071
      dyz     :     0.003857
      dx2y2   :     0.000426
      dxy     :     0.000208
      f0      :     0.000296  f :     0.000634
      f+1     :     0.000133
      f-1     :     0.000167
      f+2     :     0.000021
      f-2     :     0.000014
      f+3     :     0.000001
      f-3     :     0.000002

 18 F s       :     3.921247  s :     3.921247
      pz      :     1.873721  p :     5.280180
      px      :     1.490557
      py      :     1.915902
      dz2     :     0.002013  d :     0.015348
      dxz     :     0.003843
      dyz     :     0.000320
      dx2y2   :     0.005759
      dxy     :     0.003414
      f0      :     0.000062  f :     0.000642
      f+1     :     0.000112
      f-1     :     0.000007
      f+2     :     0.000126
      f-2     :     0.000022
      f+3     :     0.000185
      f-3     :     0.000127

 19 F s       :     3.923326  s :     3.923326
      pz      :     1.511728  p :     5.271708
      px      :     1.875016
      py      :     1.884964
      dz2     :     0.006819  d :     0.015809
      dxz     :     0.003612
      dyz     :     0.004216
      dx2y2   :     0.000656
      dxy     :     0.000506
      f0      :     0.000228  f :     0.000665
      f+1     :     0.000161
      f-1     :     0.000175
      f+2     :     0.000047
      f-2     :     0.000046
      f+3     :     0.000004
      f-3     :     0.000004

 20 F s       :     3.924357  s :     3.924357
      pz      :     1.894447  p :     5.263184
      px      :     1.458952
      py      :     1.909784
      dz2     :     0.002263  d :     0.015901
      dxz     :     0.003284
      dyz     :     0.000143
      dx2y2   :     0.006419
      dxy     :     0.003793
      f0      :     0.000055  f :     0.000670
      f+1     :     0.000131
      f-1     :     0.000011
      f+2     :     0.000095
      f-2     :     0.000006
      f+3     :     0.000221
      f-3     :     0.000152

 21 F s       :     3.920505  s :     3.920505
      pz      :     1.544378  p :     5.285796
      px      :     1.833190
      py      :     1.908227
      dz2     :     0.005732  d :     0.015463
      dxz     :     0.004685
      dyz     :     0.003325
      dx2y2   :     0.000901
      dxy     :     0.000820
      f0      :     0.000170  f :     0.000659
      f+1     :     0.000223
      f-1     :     0.000112
      f+2     :     0.000073
      f-2     :     0.000064
      f+3     :     0.000009
      f-3     :     0.000007

 22 F s       :     3.918062  s :     3.918062
      pz      :     1.890559  p :     5.285513
      px      :     1.485888
      py      :     1.909066
      dz2     :     0.002076  d :     0.015553
      dxz     :     0.003243
      dyz     :     0.000264
      dx2y2   :     0.006050
      dxy     :     0.003920
      f0      :     0.000053  f :     0.000662
      f+1     :     0.000122
      f-1     :     0.000010
      f+2     :     0.000097
      f-2     :     0.000016
      f+3     :     0.000207
      f-3     :     0.000157

 23 O s       :     3.804169  s :     3.804169
      pz      :     1.488707  p :     4.675627
      px      :     1.542844
      py      :     1.644076
      dz2     :     0.005271  d :     0.029405
      dxz     :     0.006885
      dyz     :     0.003594
      dx2y2   :     0.006279
      dxy     :     0.007376
      f0      :     0.000123  f :     0.001876
      f+1     :     0.000352
      f-1     :     0.000127
      f+2     :     0.000248
      f-2     :     0.000347
      f+3     :     0.000349
      f-3     :     0.000329

 24 O s       :     3.830093  s :     3.830093
      pz      :     1.610047  p :     4.710001
      px      :     1.357914
      py      :     1.742040
      dz2     :     0.002775  d :     0.026783
      dxz     :     0.007330
      dyz     :     0.001350
      dx2y2   :     0.007520
      dxy     :     0.007808
      f0      :     0.000196  f :     0.001799
      f+1     :     0.000261
      f-1     :     0.000042
      f+2     :     0.000273
      f-2     :     0.000134
      f+3     :     0.000455
      f-3     :     0.000439

 25 O s       :     3.808268  s :     3.808268
      pz      :     1.697346  p :     4.922889
      px      :     1.606821
      py      :     1.618722
      dz2     :     0.001242  d :     0.019460
      dxz     :     0.002154
      dyz     :     0.006109
      dx2y2   :     0.006393
      dxy     :     0.003563
      f0      :     0.000267  f :     0.001205
      f+1     :     0.000082
      f-1     :     0.000084
      f+2     :     0.000454
      f-2     :     0.000180
      f+3     :     0.000057
      f-3     :     0.000081

 26 H s       :     0.619811  s :     0.619811
      pz      :     0.017251  p :     0.047953
      px      :     0.013532
      py      :     0.017170

 27 H s       :     0.583023  s :     0.583023
      pz      :     0.016433  p :     0.054166
      px      :     0.025403
      py      :     0.012330


SPIN
  0 C s       :     0.015781  s :     0.015781
      pz      :     0.017839  p :     0.046080
      px      :     0.033679
      py      :    -0.005438
      dz2     :     0.000767  d :     0.009402
      dxz     :    -0.000177
      dyz     :     0.002995
      dx2y2   :     0.003693
      dxy     :     0.002124
      f0      :    -0.000011  f :     0.000246
      f+1     :    -0.000012
      f-1     :    -0.000010
      f+2     :     0.000005
      f-2     :     0.000086
      f+3     :    -0.000006
      f-3     :     0.000194

  1 C s       :    -0.027127  s :    -0.027127
      pz      :     0.055946  p :     0.126697
      px      :     0.083382
      py      :    -0.012632
      dz2     :     0.005774  d :     0.030137
      dxz     :     0.001446
      dyz     :     0.001595
      dx2y2   :     0.021719
      dxy     :    -0.000396
      f0      :    -0.000077  f :    -0.000116
      f+1     :    -0.000054
      f-1     :     0.000026
      f+2     :     0.000052
      f-2     :     0.000088
      f+3     :    -0.000152
      f-3     :     0.000002

  2 C s       :    -0.023453  s :    -0.023453
      pz      :     0.075861  p :     0.217137
      px      :     0.141950
      py      :    -0.000674
      dz2     :     0.006958  d :     0.043940
      dxz     :     0.001431
      dyz     :     0.006118
      dx2y2   :     0.028832
      dxy     :     0.000602
      f0      :    -0.000044  f :    -0.000492
      f+1     :    -0.000095
      f-1     :    -0.000030
      f+2     :    -0.000104
      f-2     :     0.000047
      f+3     :    -0.000178
      f-3     :    -0.000089

  3 C s       :    -0.029317  s :    -0.029317
      pz      :     0.087896  p :     0.233728
      px      :     0.148631
      py      :    -0.002798
      dz2     :     0.006862  d :     0.041879
      dxz     :     0.001545
      dyz     :     0.005481
      dx2y2   :     0.027382
      dxy     :     0.000609
      f0      :    -0.000051  f :    -0.000482
      f+1     :    -0.000089
      f-1     :    -0.000029
      f+2     :    -0.000111
      f-2     :     0.000046
      f+3     :    -0.000167
      f-3     :    -0.000081

  4 C s       :    -0.033365  s :    -0.033365
      pz      :     0.071308  p :     0.154653
      px      :     0.095103
      py      :    -0.011758
      dz2     :     0.005576  d :     0.028578
      dxz     :     0.001525
      dyz     :     0.001368
      dx2y2   :     0.020446
      dxy     :    -0.000338
      f0      :    -0.000084  f :    -0.000161
      f+1     :    -0.000055
      f-1     :     0.000001
[...]
 34:    332.45   0.000196    0.99  0.000184  (-0.005780 -0.012273  0.000085)
 35:    340.05   0.003520   17.79  0.003230  ( 0.003608 -0.054051 -0.017185)
 36:    350.42   0.010730   54.23  0.009556  ( 0.003796 -0.096237 -0.016727)
 37:    365.16   0.000023    0.12  0.000020  (-0.003030 -0.003286 -0.000065)
 38:    370.64   0.000163    0.82  0.000137  ( 0.003358  0.002421  0.010967)
 39:    380.14   0.002837   14.34  0.002329  ( 0.030515  0.023844  0.028803)
 40:    412.88   0.016854   85.17  0.012738  ( 0.079348  0.037408  0.071013)
 41:    427.36   0.003031   15.32  0.002213  (-0.031027 -0.014200 -0.032387)
 42:    467.85   0.000587    2.97  0.000392  ( 0.016345  0.011136 -0.000770)
 43:    477.04   0.001196    6.04  0.000782  ( 0.011734 -0.009015  0.023738)
 44:    514.22   0.003005   15.19  0.001824  (-0.000567  0.041034  0.011820)
 45:    522.93   0.000069    0.35  0.000041  ( 0.000270  0.003862 -0.005125)
 46:    536.49   0.004464   22.56  0.002596  (-0.015318 -0.043058  0.022536)
 47:    557.78   0.000576    2.91  0.000322  ( 0.005978  0.012435  0.011489)
 48:    572.46   0.002928   14.80  0.001596  (-0.013473  0.030422  0.022114)
 49:    584.67   0.003220   16.27  0.001719  (-0.003993 -0.040880  0.005613)
 50:    603.12   0.000784    3.96  0.000406  ( 0.005456  0.017891  0.007474)
 51:    611.65   0.000982    4.96  0.000501  ( 0.007903  0.020915  0.001032)
 52:    627.52   0.018784   94.93  0.009341  (-0.009807  0.093378  0.022925)
 53:    644.25   0.073162  369.73  0.035438  (-0.002176 -0.186218 -0.027500)
 54:    683.16   0.057367  289.91  0.026205  ( 0.006061 -0.159734 -0.025558)
 55:    691.94   0.025157  127.14  0.011346  (-0.001212  0.104221  0.021967)
 56:    735.32   0.022000  111.18  0.009336  (-0.011934 -0.095796  0.004128)
 57:    748.24   0.021349  107.89  0.008904  ( 0.055793 -0.011803 -0.075178)
 58:    760.20   0.019333   97.70  0.007936  ( 0.019943 -0.081997 -0.028544)
 59:    810.63   0.024427  123.44  0.009403  ( 0.025970  0.082428 -0.043982)
 60:    835.94   0.030969  156.50  0.011561  (-0.000024 -0.107511 -0.001469)
 61:    893.00   0.002634   13.31  0.000920  ( 0.000947  0.029516  0.006942)
 62:    904.46   0.034032  171.98  0.011742  (-0.012286  0.104500  0.025902)
 63:    965.81   0.105425  532.78  0.034064  (-0.011123  0.175361 -0.056469)
 64:    973.76   0.017694   89.42  0.005670  (-0.001168 -0.070547 -0.026308)
 65:   1000.60   0.118497  598.84  0.036957  (-0.063022 -0.181411 -0.008643)
 66:   1027.41   0.001209    6.11  0.000367  (-0.001748 -0.016660 -0.009302)
 67:   1036.67   0.008552   43.22  0.002574  (-0.017346 -0.015409 -0.045122)
 68:   1041.05   0.283680  1433.60  0.085035  ( 0.108896 -0.212257 -0.167702)
 69:   1049.92   0.121708  615.06  0.036175  (-0.091693 -0.022918 -0.165052)
 70:   1054.96   0.174277  880.73  0.051552  (-0.138450  0.163709  0.074722)
 71:   1086.45   0.099961  505.16  0.028712  (-0.059331 -0.149377 -0.053650)
 72:   1100.66   0.054083  273.32  0.015334  ( 0.120129  0.029668  0.004782)
 73:   1107.15   0.144239  728.92  0.040655  (-0.122939  0.091370 -0.131122)
 74:   1119.81   0.089560  452.60  0.024958  (-0.080325  0.088726  0.103119)
 75:   1149.94   0.053629  271.02  0.014553  (-0.004645 -0.119812  0.013302)
 76:   1163.59   0.112265  567.34  0.030108  (-0.107247  0.017422 -0.135289)
 77:   1171.20   0.284305  1436.76  0.075753  (-0.043039 -0.270951 -0.022048)
 78:   1275.75   0.224390  1133.98  0.054889  ( 0.045942  0.229596  0.007986)
 79:   1384.62   0.138819  701.53  0.031287  ( 0.036817  0.171981  0.018812)
 80:   1669.09   0.028767  145.38  0.005378  (-0.042388  0.059847 -0.000198)
 81:   1721.85   0.192056  970.57  0.034808  (-0.171175  0.038317 -0.063550)
 82:   3425.65   0.248228  1254.44  0.022613  ( 0.131747  0.012648  0.071382)
 83:   3854.58   0.017122   86.53  0.001386  ( 0.021662  0.020814  0.021994)

* The epsilon (eps) is given for a Dirac delta lineshape.
** The dipole moment derivative (T) already includes vibrational overlap.

The first frequency considered to be a vibration is 6
The total number of vibrations considered is 78


--------------------------
THERMOCHEMISTRY AT 298.15K
--------------------------

Temperature         ...   298.15 K
Pressure            ...     1.00 atm
Total Mass          ...   431.07 AMU
Quasi RRHO          ...     True
Cut-Off Frequency   ...     1.00 cm^-1

Throughout the following assumptions are being made:
  (1) The electronic state is orbitally nondegenerate
      but the spin degeneracy is treated
  (2) There are no thermally accessible electronically excited states
  (3) Hindered rotations indicated by low frequency modes are not
      treated as such but are treated as vibrations and this may
      cause some error
  (4) All equations used are the standard statistical mechanics
      equations for an ideal gas
  (5) All vibrations are strictly harmonic

freq.      10.55  E(vib)   ...       0.58 
freq.      28.03  E(vib)   ...       0.55 
freq.      29.99  E(vib)   ...       0.55 
freq.      34.48  E(vib)   ...       0.54 
freq.      42.93  E(vib)   ...       0.53 
freq.      47.08  E(vib)   ...       0.53 
freq.      53.41  E(vib)   ...       0.52 
freq.      61.48  E(vib)   ...       0.51 
freq.      69.73  E(vib)   ...       0.50 
freq.      73.88  E(vib)   ...       0.49 
freq.      94.64  E(vib)   ...       0.47 
freq.      98.52  E(vib)   ...       0.46 
freq.     103.23  E(vib)   ...       0.46 
freq.     132.76  E(vib)   ...       0.42 
freq.     156.38  E(vib)   ...       0.40 
freq.     179.26  E(vib)   ...       0.37 
freq.     193.96  E(vib)   ...       0.36 
freq.     204.58  E(vib)   ...       0.35 
freq.     212.94  E(vib)   ...       0.34 
freq.     229.80  E(vib)   ...       0.32 
freq.     240.31  E(vib)   ...       0.31 
freq.     244.27  E(vib)   ...       0.31 
freq.     251.20  E(vib)   ...       0.30 
freq.     259.81  E(vib)   ...       0.30 
freq.     274.94  E(vib)   ...       0.28 
freq.     321.95  E(vib)   ...       0.25 
freq.     326.97  E(vib)   ...       0.24 
freq.     327.79  E(vib)   ...       0.24 
freq.     332.45  E(vib)   ...       0.24 
freq.     340.05  E(vib)   ...       0.23 
freq.     350.42  E(vib)   ...       0.23 
freq.     365.16  E(vib)   ...       0.22 
freq.     370.64  E(vib)   ...       0.21 
freq.     380.14  E(vib)   ...       0.21 
freq.     412.88  E(vib)   ...       0.19 
freq.     427.36  E(vib)   ...       0.18 
freq.     467.85  E(vib)   ...       0.16 
freq.     477.04  E(vib)   ...       0.15 
freq.     514.22  E(vib)   ...       0.13 
freq.     522.93  E(vib)   ...       0.13 
freq.     536.49  E(vib)   ...       0.12 
freq.     557.78  E(vib)   ...       0.12 
freq.     572.46  E(vib)   ...       0.11 
freq.     584.67  E(vib)   ...       0.11 
freq.     603.12  E(vib)   ...       0.10 
freq.     611.65  E(vib)   ...       0.10 
freq.     627.52  E(vib)   ...       0.09 
freq.     644.25  E(vib)   ...       0.09 
freq.     683.16  E(vib)   ...       0.08 
freq.     691.94  E(vib)   ...       0.07 
freq.     735.32  E(vib)   ...       0.06 
freq.     748.24  E(vib)   ...       0.06 
freq.     760.20  E(vib)   ...       0.06 
freq.     810.63  E(vib)   ...       0.05 
freq.     835.94  E(vib)   ...       0.04 
freq.     893.00  E(vib)   ...       0.03 
freq.     904.46  E(vib)   ...       0.03 
freq.     965.81  E(vib)   ...       0.03 
freq.     973.76  E(vib)   ...       0.03 
freq.    1000.60  E(vib)   ...       0.02 
freq.    1027.41  E(vib)   ...       0.02 
freq.    1036.67  E(vib)   ...       0.02 
freq.    1041.05  E(vib)   ...       0.02 
freq.    1049.92  E(vib)   ...       0.02 
freq.    1054.96  E(vib)   ...       0.02 
freq.    1086.45  E(vib)   ...       0.02 
freq.    1100.66  E(vib)   ...       0.02 
freq.    1107.15  E(vib)   ...       0.02 
freq.    1119.81  E(vib)   ...       0.01 
freq.    1149.94  E(vib)   ...       0.01 
freq.    1163.59  E(vib)   ...       0.01 
freq.    1171.20  E(vib)   ...       0.01 
freq.    1275.75  E(vib)   ...       0.01 
freq.    1384.62  E(vib)   ...       0.00 
freq.    1669.09  E(vib)   ...       0.00 
freq.    1721.85  E(vib)   ...       0.00 
freq.    3425.65  E(vib)   ...       0.00 
freq.    3854.58  E(vib)   ...       0.00 

------------
INNER ENERGY
------------

The inner energy is: U= E(el) + E(ZPE) + E(vib) + E(rot) + E(trans)
    E(el)   - is the total energy from the electronic structure calculation
              = E(kin-el) + E(nuc-el) + E(el-el) + E(nuc-nuc)
    E(ZPE)  - the the zero temperature vibrational energy from the frequency calculation
    E(vib)  - the the finite temperature correction to E(ZPE) due to population
              of excited vibrational states
    E(rot)  - is the rotational thermal energy
    E(trans)- is the translational thermal energy

Summary of contributions to the inner energy U:
Electronic energy                ...  -2029.49114708 Eh
Zero point energy                ...      0.11492761 Eh      72.12 kcal/mol
Thermal vibrational correction   ...      0.02449449 Eh      15.37 kcal/mol
Thermal rotational correction    ...      0.00141627 Eh       0.89 kcal/mol
Thermal translational correction ...      0.00141627 Eh       0.89 kcal/mol
-----------------------------------------------------------------------
Total thermal energy                  -2029.34889244 Eh


Summary of corrections to the electronic energy:
(perhaps to be used in another calculation)
Total thermal correction                  0.02732704 Eh      17.15 kcal/mol
Non-thermal (ZPE) correction              0.11492761 Eh      72.12 kcal/mol
-----------------------------------------------------------------------
Total correction                          0.14225465 Eh      89.27 kcal/mol


--------
ENTHALPY
--------

The enthalpy is H = U + kB*T
                kB is Boltzmann's constant
Total thermal energy              ...  -2029.34889244 Eh 
Thermal Enthalpy correction       ...      0.00094421 Eh       0.59 kcal/mol
-----------------------------------------------------------------------
Total Enthalpy                    ...  -2029.34794823 Eh


Note: Only C1 symmetry has been detected, increase convergence thresholds 
      if your molecule has a higher symmetry. Symmetry factor of 1.0 is   
      used for the rotational entropy correction. 
 

Note: Rotational entropy computed according to Herzberg 
Infrared and Raman Spectra, Chapter V,1, Van Nostrand Reinhold, 1945 
Point Group:  C1, Symmetry Number:   1  
Rotational constants in cm-1:     0.017194     0.003149     0.003033 

Vibrational entropy computed according to the QRRHO of S. Grimme
Chem.Eur.J. 2012 18 9955 using a reference frequency of 100.0 cm-1


-------
ENTROPY
-------

The entropy contributions are T*S = T*(S(el)+S(vib)+S(rot)+S(trans))
     S(el)   - electronic entropy
     S(vib)  - vibrational entropy
     S(rot)  - rotational entropy
     S(trans)- translational entropy
The entropies will be listed as multiplied by the temperature to get
units of energy

Electronic entropy                ...      0.00065446 Eh      0.41 kcal/mol
Vibrational entropy               ...      0.04491728 Eh     28.19 kcal/mol
Rotational entropy                ...      0.01688581 Eh     10.60 kcal/mol
Translational entropy             ...      0.02094056 Eh     13.14 kcal/mol
-----------------------------------------------------------------------
Final entropy term                ...      0.08339811 Eh     52.33 kcal/mol

In case the symmetry of your molecule has not been determined correctly
or in case you have a reason to use a different symmetry number we print 
out the resulting rotational entropy values for sn=1,12:

 non-linear molecules -----------------------------------
|  sn= 1 | S(rot)=       0.01688581 Eh     10.60 kcal/mol|
|  sn= 2 | S(rot)=       0.01623135 Eh     10.19 kcal/mol|
|  sn= 3 | S(rot)=       0.01584852 Eh      9.95 kcal/mol|
|  sn= 4 | S(rot)=       0.01557689 Eh      9.77 kcal/mol|
|  sn= 5 | S(rot)=       0.01536621 Eh      9.64 kcal/mol|
|  sn= 6 | S(rot)=       0.01519406 Eh      9.53 kcal/mol|
|  sn= 7 | S(rot)=       0.01504852 Eh      9.44 kcal/mol|
|  sn= 8 | S(rot)=       0.01492244 Eh      9.36 kcal/mol|
|  sn= 9 | S(rot)=       0.01481123 Eh      9.29 kcal/mol|
|  sn=10 | S(rot)=       0.01471175 Eh      9.23 kcal/mol|
|  sn=11 | S(rot)=       0.01462176 Eh      9.18 kcal/mol|
|  sn=12 | S(rot)=       0.01453961 Eh      9.12 kcal/mol|
 linear molecules ---------------------------------------
|  Dinfh | S(rot)=       0.01080040 Eh      6.78 kcal/mol|
|  Cinfv | S(rot)=       0.01145486 Eh      7.19 kcal/mol|
 --------------------------------------------------------


-------------------
GIBBS FREE ENERGY
-------------------

The Gibbs free energy is G = H - T*S

Total enthalpy                    ...  -2029.34794823 Eh 
Total entropy correction          ...     -0.08339811 Eh    -52.33 kcal/mol
-----------------------------------------------------------------------
Final Gibbs free energy         ...  -2029.43134634 Eh

For completeness - the Gibbs free energy minus the electronic energy
G-E(el)                           ...      0.05980075 Eh     37.53 kcal/mol


Maximum memory used throughout the entire PROP-calculation: 654.4 MB

--------------------------------
SUGGESTED CITATIONS FOR THIS RUN
--------------------------------

Below you find a list of papers that are relevant to this ORCA run
We neither can nor want to force you to cite these papers, but we appreciate if you do
You receive ORCA, which is the product of decades of hard work by many enthusiastic individuals, for free
The only thing we kindly ask in return is that you cite our papers,
We deeply appreciate it, if you show your appreciation for ORCA by not just citing the generic ORCA reference.

Please note that relegating all ORCA citations to the supporting information does *not* help us.
SI sections are not indexed - citations you put there will not count into any citation statistics
But we need these citations in order to attract the funding resources that allow us to do what we are doing

Therefore, if you are a happy ORCA user, please consider citing a few of the papers listed below in the main body of your paper

In addition to the list printed below, the program has created the file rf_mecn_1H2O_freq_r2s_sw_04.bibtex that contains the list in bibtex format
You can import this file easily into all common literature databanks and citation aid programs


List of essential papers. We consider these as the minimum necessary citations

  1. Neese,F.
     Software update: the ORCA program system, version 5.0
     WIRES Comput. Molec. Sci., 2022 12(1)e1606
     doi.org/10.1002/wcms.1606

List of papers to cite with high priority. The work reported in these papers was absolutely
necessary for this run to complete.
Our perspective: the developers of density functionals and basis sets usually get cited in chemistry papers
Good! But without the algorithms to do something with them, the functionals or basis sets would not do anything.
Hence, in our opinion, the algorithm design and method developments papers are equally worthy of getting cited

  1. Neese,F.
     An improvement of the resolution of the identity approximation for the formation of the Coulomb matrix
     J. Comp. Chem., 2003 24(14)1740-1747
     doi.org/10.1002/jcc.10318
  2. Neese,F.; Wennmohs,F.; Hansen,A.; Becker,U.
     Efficient, approximate and parallel Hartree-Fock and hybrid DFT calculations. A 'chain-of-spheres' algorithm for the Hartree-Fock exchange
     Chem. Phys., 2009 356(1-3)98-109
     doi.org/10.1016/j.chemphys.2008.10.036
  3. Bykov,D.; Petrenko,T.; Izsak,R.; Kossmann,S.; Becker,U.; Valeev,E.; Neese,F.
     Efficient implementation of the analytic second derivatives of Hartree-Fock and hybrid DFT energies: a detailed analysis of different approximations
     Molec. Phys., 2015 113 1961-1977
     doi.org/10.1080/00268976.2015.1025114
  4. Garcia-Rates,M.; Neese,F.
     Efficient implementation of the analytical second derivatives of hartree-fock and hybrid DFT energies within the framework of the conductor-like polarizable continuum model
     J. Comput. Chem., 2019 40 1816-1828
     doi.org/10.1002/jcc.25833
  5. Garcia-Rates,M.; Neese,F.
     Effect of the Solute Cavity on the Solvation Energy and its Derivatives within the Framework of the Gaussian Charge Scheme
     J. Comput. Chem., 2020 41 922-939
     doi.org/10.1002/jcc.26139
  6. Helmich-Paris,B.; de Souza,B.; Neese,F.; Izsák,R.
     An improved chain of spheres for exchange algorithm
     J. Chem. Phys., 2021 155 104109
     doi.org/doi: 10.1063/5.0058766.
  7. Neese,F.
     The SHARK Integral Generation and Digestion System
     J. Comp. Chem., 2022  1-16
     doi.org/10.1002/jcc.26942
  8. Lehtola,S.; Steigemann,C.; Oliveira,M.; Marques,M.
     Recent developments in Libxc - A comprehensive library of functionals for density functional theory
     Software X, 2018 7 
     doi.org/10.1016/j.softx.2017.11.002
  9. Grimme,S.; Antony,J.; Ehrlich,S.; Krieg,H.
     A consistent and accurate ab initio parametrization of density functional dispersion correction (DFT-D) for the 94 elements H-Pu
     J. Chem. Phys., 2010 132 154104
     doi.org/10.1063/1.3382344
 10. Grimme,S.; Ehrlich,S.; Goerigk,L.
     Effect of the damping function in dispersion corrected density functional theory
     J. Comput. Chem., 2011 32(7)1456-1465
     doi.org/10.1002/jcc.21759
 11. Bursch,M.; Neugebauer,H.; Ehlert,S.; Grimme,S.
     Dispersion corrected r2SCAN based global hybrid functionals: r2SCANh, r2SCAN0, and r2SCAN50
     J. Phys. Chem., 2022 156(13)134105
     doi.org/10.1063/5.0086040

List of suggested additional citations. These are papers that are important in the 'surrounding' of 
of this run, or papers that preceded the highly important papers. If you like your results we are grateful for a citation.

  1. Izsak,R.; Neese,F.
     An overlap fitted chain of spheres exchange method
     J. Chem. Phys., 2011 135 144105
     doi.org/10.1063/1.3646921
  2. Izsak,R.; Hansen,A.; Neese,F.
     The resolution of identity and chain of spheres approximations for the LPNO-CCSD singles Fock term
     Molec. Phys., 2012 110 2413-2417
     doi.org/10.1080/00268976.2012.687466
  3. Neese,F.
     The ORCA program system
     WIRES Comput. Molec. Sci., 2012 2(1)73-78
     doi.org/10.1002/wcms.81
  4. Izsak,R.; Neese,F.; Klopper,W.
     Robust fitting techniques in the chain of spheres approximation to the Fock exchange: The role of the complementary space
     J. Chem. Phys., 2013 139 
     doi.org/10.1063/1.4819264
  5. Neese,F.
     Software update: the ORCA program system, version 4.0
     WIRES Comput. Molec. Sci., 2018 8(1)1-6
     doi.org/10.1002/wcms.1327
  6. Neese,F.; Wennmohs,F.; Becker,U.; Riplinger,C.
     The ORCA quantum chemistry program package
     J. Chem. Phys., 2020 152 Art. No. L224108
     doi.org/10.1063/5.0004608
  7. Wittmann,L.; Neugebauer,H.; Grimme,S.; Bursch,M.
     Dispersion-corrected r2SCAN based double-hybrid functionals
     J. Chem. Phys., 2023 159(22)224103
     doi.org/10.1063/5.0174988

List of optional additional citations

  1. Neese,F.
     Approximate second-order SCF convergence for spin unrestricted wavefunctions
     Chem. Phys. Lett., 2000 325(1-3)93-98
     doi.org/10.1016/s0009-2614(00)00662-x

Timings for individual modules:

Sum of individual times          ...     1801.311 sec (=  30.022 min)
Startup calculation              ...        4.208 sec (=   0.070 min)   0.2 %
SCF iterations                   ...      139.943 sec (=   2.332 min)   7.8 %
Property integrals               ...      502.307 sec (=   8.372 min)  27.9 %
SCF Response                     ...      900.653 sec (=  15.011 min)  50.0 %
Property calculations            ...      254.201 sec (=   4.237 min)  14.1 %
                             ****ORCA TERMINATED NORMALLY****
TOTAL RUN TIME: 0 days 0 hours 30 minutes 2 seconds 124 msec
