
                                 *****************
                                 * O   R   C   A *
                                 *****************

                                            #,                                       
                                            ###                                      
                                            ####                                     
                                            #####                                    
                                            ######                                   
                                           ########,                                 
                                     ,,################,,,,,                         
                               ,,#################################,,                 
                          ,,##########################################,,             
                       ,#########################################, ''#####,          
                    ,#############################################,,   '####,        
                  ,##################################################,,,,####,       
                ,###########''''           ''''###############################       
              ,#####''   ,,,,##########,,,,          '''####'''          '####       
            ,##' ,,,,###########################,,,                        '##       
           ' ,,###''''                  '''############,,,                           
         ,,##''                                '''############,,,,        ,,,,,,###''
      ,#''                                            '''#######################'''  
     '                                                          ''''####''''         
             ,#######,   #######,   ,#######,      ##                                
            ,#'     '#,  ##    ##  ,#'     '#,    #''#        ,####,   ,####,        
            ##       ##  ##   ,#'  ##            #'  '#       #'       #'  '#        
            ##       ##  #######   ##           ,######,      #####,   #    #        
            '#,     ,#'  ##    ##  '#,     ,#' ,#      #,     #,   #   #,  ,#        
             '#######'   ##     ##  '#######'  #'      '#     '####' # '####'        



                #########################################################
                #                        -***-                          #
                #          Department of theory and spectroscopy        #
                #                                                       #
                #                      Frank Neese                      #
                #                                                       #
                #     Directorship, Architecture, Infrastructure        #
                #                    SHARK, DRIVERS                     #
                #        Core code/Algorithms in most modules           #
                #                                                       #
                #        Max Planck Institute fuer Kohlenforschung      #
                #                Kaiser Wilhelm Platz 1                 #
                #                 D-45470 Muelheim/Ruhr                 #
                #                      Germany                          #
                #                                                       #
                #                  All rights reserved                  #
                #                        -***-                          #
                #########################################################


                         Program Version 6.0.1  -  RELEASE   -


 With contributions from (in alphabetic order):
[Max-Planck-Institut fuer Kohlenforschung]                               
  Daniel Aravena         : Magnetic Suceptibility                        
  Michael Atanasov       : Ab Initio Ligand Field Theory (pilot matlab implementation)
  Alexander A. Auer      : GIAO ZORA, VPT2 properties, NMR spectrum      
  Ute Becker             : All parallelization in ORCA, NUMFREQ, NUMCALC 
  Giovanni Bistoni       : ED, misc. LED, open-shell LED, HFLD           
  Martin Brehm           : Molecular dynamics                            
  Dmytro Bykov           : pre 5.0 version of the SCF Hessian            
  Marcos Casanova-Páez   : Triplet and SCS-CIS(D). UHF-(DLPNO)-IP/EA/STEOM-CCSD. UHF-CVS-IP/STEOM-CCSD   
  Vijay G. Chilkuri      : MRCI spin determinant printing, contributions to CSF-ICE 
  Pauline Colinet        : FMM embedding                                 
  Dipayan Datta          : RHF DLPNO-CCSD density                        
  Achintya Kumar Dutta   : EOM-CC, STEOM-CC                              
  Nicolas Foglia         : Exact transition moments, OPA infrastructure, MCD improvements    
  Dmitry Ganyushin       : Spin-Orbit,Spin-Spin,Magnetic field MRCI      
  Miquel Garcia-Rates    : C-PCM and meta-GGA Hessian, CCSD/C-PCM, Gaussian charge scheme 
  Tiago L. C. Gouveia    : GS-ROHF, GS-ROCIS                             
  Yang Guo               : DLPNO-NEVPT2, F12-NEVPT2, CIM, IAO-localization        
  Andreas Hansen         : Spin unrestricted coupled pair/coupled cluster methods 
  Ingolf Harden          : AUTO-CI MPn and infrastructure                
  Benjamin Helmich-Paris : MC-RPA, TRAH-(SCF,CASSCF), AVAS, COSX integrals, SCF dyn. polar. 
  Lee Huntington         : MR-EOM, pCC                                   
  Robert Izsak           : Overlap fitted RIJCOSX, COSX-SCS-MP3, EOM     
  Riya Kayal             : Wick's Theorem for AUTO-CI, AUTO-CI UHF-CCSDT 
  Emily Kempfer          : AUTO-CI, RHF CISDT and CCSDT                  
  Christian Kollmar      : KDIIS, OOCD, Brueckner-CCSD(T), CCSD density, CASPT2, CASPT2-K, improved NEVPT2 
  Axel Koslowski         : Symmetry handling                             
  Simone Kossmann        : meta-GGA functionals, TD-DFT gradient, OOMP2, (MP2 Hessian; deprecated post 5.0) 
  Lucas Lang             : DCDCAS                                        
  Marvin Lechner         : AUTO-CI (C++ implementation), FIC-MRCC        
  Spencer Leger          : CASSCF response                               
  Dagmar Lenk            : GEPOL surface, SMD, ORCA-2-JSON               
  Dimitrios Liakos       : Extrapolation schemes; Compound Job, initial MDCI parallelization 
  Dimitrios Manganas     : Further ROCIS development; embedding schemes. LFT, Crystal Embedding 
  Dimitrios Pantazis     : SARC Basis sets                               
  Anastasios Papadopoulos: AUTO-CI, single reference methods and gradients 
  Taras Petrenko         : pre 6.0 DFT Hessian and TD-DFT gradient, (ASA, deprecated), ECA, 1-Electron XAS/XES, NRVS 
  Peter Pinski           : DLPNO-MP2, DLPNO-MP2 Gradient                 
  Christoph Reimann      : Effective Core Potentials                     
  Marius Retegan         : Local ZFS, SOC                                
  Christoph Riplinger    : Optimizer, TS searches, QM/MM, DLPNO-CCSD(T), (RO)-DLPNO pert. Triples 
  Michael Roemelt        : Original ROCIS implementation                 
  Masaaki Saitow         : Open-shell DLPNO-CCSD energy and density      
  Barbara Sandhoefer     : DKH picture change effects                    
  Kantharuban Sivalingam : CASSCF convergence/infrastructure, NEVPT2 and variants, FIC-MRCI 
  Bernardo de Souza      : ESD, SOC TD-DFT                               
  Georgi L. Stoychev     : AutoAux, RI-MP2 NMR, DLPNO-MP2 response, X2C  
  Van Anh Tran           : RI-MP2 g-tensors                              
  Willem Van den Heuvel  : Paramagnetic NMR                              
  Zikuan Wang            : NOTCH, Electric field optimization            
  Frank Wennmohs         : Technical directorship and infrastructure     
  Hang Xu                : AUTO-CI-Response properties                   
                                                                         
[FACCTs GmbH]                                                            
  Markus Bursch, Miquel Garcia-Rates, Christoph Riplinger, Bernardo de Souza, Georgi L. Stoychev 
                                                                 
  APM, Basis sets (HGBS, AHGBS, def-TZVP (Ac-Lr), def2-XVPD (La-Lu)), CI-OPT, improved COSX, DLPNO-Multilevel,           
  DOCKER, DRACO, updates on ESD, GOAT, IRC, LR-CPCM, MBIS, meta-GGA TD-DFT gradient, ML-optimized integration grids, 
  MM, NACMEs, nearIR, NEB, NEB-TS, NL-DFT gradient (VV10), 2- and 3-layer-ONIOM, interface openCOSMO-RS, QMMM,   
  Crystal-QMMM, SF, symmetry and pop. for TD-DFT, r2SCAN hybrids, SOLVATOR                                   
                                                                         
[Other institutions]                                                     
  V. Asgeirsson          : NEB                                           
  Christoph Bannwarth    : sTDA-DFT, sTD-DFT, PBEh-3c, B97-3c, D3        
  Sebastian Ehlert       : rSCAN, r2SCAN, r2SCAN-3c, D4, dhf basis sets  
  Marvin Friede          : D4 for Fr, Ra, Ac-Lr                          
  Lars Goerigk           : TD-DFT with DH, B97 family of functionals     
  Stefan Grimme          : VdW corrections, initial TS optimization, DFT functionals, gCP, sTDA/sTD-DF 
  Waldemar Hujo          : DFT-NL                                        
  H. Jonsson             : NEB                                           
  Holger Kruse           : gCP                                           
  Marcel Mueller         : wB97X-3c, vDZP basis set                      
  Hagen Neugebauer       : wr2SCAN                                       
  Tobias Risthaus        : range-separated hybrid DFT                    
  Lukas Wittmann         : regularized MP2, r2SCAN double-hybrids, wr2SCAN        
                                                                         
We gratefully acknowledge several colleagues who have allowed us to      
interface, adapt or use parts of their codes:                            
  Ed Valeev, F. Pavosevic, A. Kumar             : LibInt (2-el integral package), F12 methods 
  Garnet Chan, S. Sharma, J. Yang, R. Olivares  : DMRG                   
  Ulf Ekstrom                                   : XCFun DFT Library      
  Mihaly Kallay                                 : mrcc  (arbitrary order and MRCC methods)
  Frank Weinhold                                : gennbo (NPA and NBO analysis)           
  Simon Mueller                                 : openCOSMO-RS                            
  Christopher J. Cramer and Donald G. Truhlar   : smd solvation model                     
  S Lehtola, MJT Oliveira, MAL Marques          : LibXC Library                           
  Liviu Ungur et al                             : ANISO software                          


 Your calculation uses the libint2 library for the computation of 2-el integrals
 For citations please refer to: http://libint.valeyev.net

 Your ORCA version has been built with support for libXC version: 6.2.2
 For citations please refer to: https://libxc.gitlab.io

 This ORCA versions uses:
   CBLAS   interface :  Fast vector & matrix operations
   LAPACKE interface :  Fast linear algebra routines
   SCALAPACK package :  Parallel linear algebra routines
   Shared memory     :  Shared parallel matrices
   BLAS/LAPACK       :  OpenBLAS 0.3.27  USE64BITINT DYNAMIC_ARCH NO_AFFINITY SkylakeX SINGLE_THREADED
        Core in use  :  SkylakeX
   Copyright (c) 2011-2014, The OpenBLAS Project


NOTE: MaxCore=8000 MB was set to SCF,MP2,MDCI,CIPSI,MRCI and CIS
      => If you want to overwrite this, your respective input block should be placed after the MaxCore statement
Your calculation utilizes the atom-pairwise dispersion correction
with the Becke-Johnson damping scheme (D3BJ)


Your calculation utilizes the SMD solvation module
Please cite in your paper:
A.V. Marenich, C.J. Cramer, D.G. Truhlar J. Phys. Chem. B, 113, (2009), 6378 

Warning: RI is on but no J-basis has been assigned. Assigning Def2/J (nothing to worry about!)
================================================================================

----- Orbital basis set information -----
Your calculation utilizes the basis: def2-TZVP
   F. Weigend and R. Ahlrichs, Phys. Chem. Chem. Phys. 7, 3297 (2005).

----- AuxJ basis set information -----
Your calculation utilizes the auxiliary basis: def2/J
   F. Weigend, Phys. Chem. Chem. Phys. 8, 1057 (2006).

================================================================================
                                        WARNINGS
                       Please study these warnings very carefully!
================================================================================


WARNING: your system is open-shell and RHF/RKS was chosen
  ===> : WILL SWITCH to UHF/UKS


================================================================================
                                       INPUT FILE
================================================================================
NAME = rf_mecn_freq_B3L_C3_D_B.inp
|  1> !B3LYP def2-TZVP freq d3 TightSCF SlowConv defgrid2
|  2>  
|  3> %pal
|  4> nprocs 20
|  5> end
|  6>  
|  7> %scf
|  8> MaxIter 1500
|  9> end
| 10>  
| 11> %maxcore 8000
| 12>  
| 13> !CPCM
| 14> %cpcm smd true
| 15> SMDsolvent "ACETONITRILE"
| 16> end
| 17>  
| 18> * xyz -1 2
| 19> 6        3.629983000      0.031752000     -1.195225000
| 20> 8        3.863902000     -0.940697000     -1.921124000
| 21> 8        3.456448000      1.236143000     -1.443608000
| 22> 6        3.535847000     -0.277889000      0.364914000
| 23> 6        2.262748000      0.167014000      0.999997000
| 24> 6        0.948265000     -0.523361000      0.912678000
| 25> 6       -0.233673000      0.399199000      0.450761000
| 26> 6       -1.517775000     -0.386084000     -0.001730000
| 27> 6       -2.819378000      0.480988000      0.045281000
| 28> 6       -4.037156000     -0.134552000     -0.717477000
| 29> 9        3.717344000     -1.611634000      0.630475000
| 30> 9        4.571336000      0.383722000      0.991652000
| 31> 9        2.220813000      1.405602000      1.487812000
| 32> 9        1.031664000     -1.568656000      0.052443000
| 33> 9        0.588842000     -1.031041000      2.139099000
| 34> 9       -0.554965000      1.229459000      1.465671000
| 35> 9        0.180692000      1.145216000     -0.592767000
| 36> 9       -1.706470000     -1.458568000      0.792306000
| 37> 9       -1.327112000     -0.818372000     -1.265240000
| 38> 9       -2.572983000      1.692319000     -0.494048000
| 39> 9       -3.188250000      0.639918000      1.330632000
| 40> 9       -4.253705000     -1.392372000     -0.326617000
| 41> 9       -5.123139000      0.592618000     -0.442020000
| 42> 9       -3.836024000     -0.116875000     -2.034553000
| 43> *
| 44> 
| 45>                          ****END OF INPUT****
================================================================================

                       ****************************
                       * Single Point Calculation *
                       ****************************

---------------------------------
CARTESIAN COORDINATES (ANGSTROEM)
---------------------------------
  C      3.629983    0.031752   -1.195225
  O      3.863902   -0.940697   -1.921124
  O      3.456448    1.236143   -1.443608
  C      3.535847   -0.277889    0.364914
  C      2.262748    0.167014    0.999997
  C      0.948265   -0.523361    0.912678
  C     -0.233673    0.399199    0.450761
  C     -1.517775   -0.386084   -0.001730
  C     -2.819378    0.480988    0.045281
  C     -4.037156   -0.134552   -0.717477
  F      3.717344   -1.611634    0.630475
  F      4.571336    0.383722    0.991652
  F      2.220813    1.405602    1.487812
  F      1.031664   -1.568656    0.052443
  F      0.588842   -1.031041    2.139099
  F     -0.554965    1.229459    1.465671
  F      0.180692    1.145216   -0.592767
  F     -1.706470   -1.458568    0.792306
  F     -1.327112   -0.818372   -1.265240
  F     -2.572983    1.692319   -0.494048
  F     -3.188250    0.639918    1.330632
  F     -4.253705   -1.392372   -0.326617
  F     -5.123139    0.592618   -0.442020
  F     -3.836024   -0.116875   -2.034553

----------------------------
CARTESIAN COORDINATES (A.U.)
----------------------------
  NO LB      ZA    FRAG     MASS         X           Y           Z
   0 C     6.0000    0    12.011    6.859674    0.060003   -2.258648
   1 O     8.0000    0    15.999    7.301717   -1.777660   -3.630398
   2 O     8.0000    0    15.999    6.531740    2.335972   -2.728024
   3 C     6.0000    0    12.011    6.681782   -0.525134    0.689588
   4 C     6.0000    0    12.011    4.275974    0.315611    1.889720
   5 C     6.0000    0    12.011    1.791961   -0.989009    1.724711
   6 C     6.0000    0    12.011   -0.441578    0.754377    0.851815
   7 C     6.0000    0    12.011   -2.868179   -0.729593   -0.003269
   8 C     6.0000    0    12.011   -5.327852    0.908936    0.085569
   9 C     6.0000    0    12.011   -7.629119   -0.254266   -1.355835
  10 F     9.0000    0    18.998    7.024762   -3.045547    1.191425
  11 F     9.0000    0    18.998    8.638573    0.725129    1.873951
  12 F     9.0000    0    18.998    4.196728    2.656203    2.811557
  13 F     9.0000    0    18.998    1.949562   -2.964330    0.099103
  14 F     9.0000    0    18.998    1.112750   -1.948385    4.042311
  15 F     9.0000    0    18.998   -1.048732    2.323341    2.769717
  16 F     9.0000    0    18.998    0.341458    2.164145   -1.120167
  17 F     9.0000    0    18.998   -3.224761   -2.756294    1.497241
  18 F     9.0000    0    18.998   -2.507878   -1.546499   -2.390957
  19 F     9.0000    0    18.998   -4.862233    3.198019   -0.933615
  20 F     9.0000    0    18.998   -6.024919    1.209270    2.514530
  21 F     9.0000    0    18.998   -8.038338   -2.631202   -0.617217
  22 F     9.0000    0    18.998   -9.681330    1.119886   -0.835297
  23 F     9.0000    0    18.998   -7.249035   -0.220862   -3.844748

--------------------------------
INTERNAL COORDINATES (ANGSTROEM)
--------------------------------
 C      0   0   0     0.000000000000     0.00000000     0.00000000
 O      1   0   0     1.235841621877     0.00000000     0.00000000
 O      1   2   0     1.241920364514   132.22685907     0.00000000
 C      1   2   3     1.593352702542   115.68326316   180.49942507
 C      4   1   2     1.490654272492   114.18091212   235.19796175
 C      5   4   1     1.487315637541   126.24632681    77.65808725
 C      6   5   4     1.568904619259   114.21404379   232.18432675
 C      7   6   5     1.571730079108   113.98224476   164.80978571
 C      8   7   6     1.564670654455   113.21075771   158.91817416
 C      9   8   7     1.563225036726   114.53028665   165.65488672
 F      4   1   2     1.371983793911   111.75423868   359.09016784
 F      4   1   2     1.379408244533   107.89796088   115.48540439
 F      5   4   1     1.331849185229   117.41934384   270.62692040
 F      6   5   4     1.356319020530   109.91494811   354.03354730
 F      6   5   4     1.375148117320   110.48753622   112.25018528
 F      7   6   5     1.350037971675   108.63785361   286.83910173
 F      7   6   5     1.348032048691   108.76979503    44.57894613
 F      8   7   6     1.347709502295   110.02112095    38.15004956
 F      8   7   6     1.348956194475   108.31819865   279.75039966
 F      9   8   7     1.348669365644   109.49542857    44.83165120
 F      9   8   7     1.346644901407   108.78054009   285.79505682
 F     10   9   8     1.334831885071   110.76576165    51.83533447
 F     10   9   8     1.335669062320   108.56541699   171.12261934
 F     10   9   8     1.332462287470   111.06886970   290.49039622

---------------------------
INTERNAL COORDINATES (A.U.)
---------------------------
 C      0   0   0     0.000000000000     0.00000000     0.00000000
 O      1   0   0     2.335402210248     0.00000000     0.00000000
 O      1   2   0     2.346889369071   132.22685907     0.00000000
 C      1   2   3     3.011000242548   115.68326316   180.49942507
 C      4   1   2     2.816928335370   114.18091212   235.19796175
 C      5   4   1     2.810619229652   126.24632681    77.65808725
 C      6   5   4     2.964800060644   114.21404379   232.18432675
 C      7   6   5     2.970139405961   113.98224476   164.80978571
 C      8   7   6     2.956799026704   113.21075771   158.91817416
 C      9   8   7     2.954067205102   114.53028665   165.65488672
 F      4   1   2     2.592673630670   111.75423868   359.09016784
 F      4   1   2     2.606703809041   107.89796088   115.48540439
 F      5   4   1     2.516830211768   117.41934384   270.62692040
 F      6   5   4     2.563071499030   109.91494811   354.03354730
 F      6   5   4     2.598653335313   110.48753622   112.25018528
 F      7   6   5     2.551202036860   108.63785361   286.83910173
 F      7   6   5     2.547411391775   108.76979503    44.57894613
 F      8   7   6     2.546801867421   110.02112095    38.15004956
 F      8   7   6     2.549157774215   108.31819865   279.75039966
 F      9   8   7     2.548615746277   109.49542857    44.83165120
 F      9   8   7     2.544790063300   108.78054009   285.79505682
 F     10   9   8     2.522466697609   110.76576165    51.83533447
 F     10   9   8     2.524048733336   108.56541699   171.12261934
 F     10   9   8     2.517988807096   111.06886970   290.49039622

---------------------
BASIS SET INFORMATION
---------------------
There are 3 groups of distinct atoms

 Group   1 Type C   : 11s6p2d1f contracted to 5s3p2d1f pattern {62111/411/11/1}
 Group   2 Type O   : 11s6p2d1f contracted to 5s3p2d1f pattern {62111/411/11/1}
 Group   3 Type F   : 11s6p2d1f contracted to 5s3p2d1f pattern {62111/411/11/1}

Atom   0C    basis set group =>   1
Atom   1O    basis set group =>   2
Atom   2O    basis set group =>   2
Atom   3C    basis set group =>   1
Atom   4C    basis set group =>   1
Atom   5C    basis set group =>   1
Atom   6C    basis set group =>   1
Atom   7C    basis set group =>   1
Atom   8C    basis set group =>   1
Atom   9C    basis set group =>   1
Atom  10F    basis set group =>   3
Atom  11F    basis set group =>   3
Atom  12F    basis set group =>   3
Atom  13F    basis set group =>   3
Atom  14F    basis set group =>   3
Atom  15F    basis set group =>   3
Atom  16F    basis set group =>   3
Atom  17F    basis set group =>   3
Atom  18F    basis set group =>   3
Atom  19F    basis set group =>   3
Atom  20F    basis set group =>   3
Atom  21F    basis set group =>   3
Atom  22F    basis set group =>   3
Atom  23F    basis set group =>   3
---------------------------------
AUXILIARY/J BASIS SET INFORMATION
---------------------------------
There are 3 groups of distinct atoms

 Group   1 Type C   : 12s5p4d2f1g contracted to 6s4p3d1f1g pattern {711111/2111/211/2/1}
 Group   2 Type O   : 12s5p4d2f1g contracted to 6s4p3d1f1g pattern {711111/2111/211/2/1}
 Group   3 Type F   : 12s5p4d2f1g contracted to 6s4p3d1f1g pattern {711111/2111/211/2/1}

Atom   0C    basis set group =>   1
Atom   1O    basis set group =>   2
Atom   2O    basis set group =>   2
Atom   3C    basis set group =>   1
Atom   4C    basis set group =>   1
Atom   5C    basis set group =>   1
Atom   6C    basis set group =>   1
Atom   7C    basis set group =>   1
Atom   8C    basis set group =>   1
Atom   9C    basis set group =>   1
Atom  10F    basis set group =>   3
Atom  11F    basis set group =>   3
Atom  12F    basis set group =>   3
Atom  13F    basis set group =>   3
Atom  14F    basis set group =>   3
Atom  15F    basis set group =>   3
Atom  16F    basis set group =>   3
Atom  17F    basis set group =>   3
Atom  18F    basis set group =>   3
Atom  19F    basis set group =>   3
Atom  20F    basis set group =>   3
Atom  21F    basis set group =>   3
Atom  22F    basis set group =>   3
Atom  23F    basis set group =>   3


           ************************************************************
           *        Program running with 20 parallel MPI-processes    *
           *              working on a common directory               *
           ************************************************************
------------------------------------------------------------------------------
                             ORCA STARTUP CALCULATIONS
                           -- RI-GTO INTEGRALS CHOSEN --
------------------------------------------------------------------------------
------------------------------------------------------------------------------
                   ___                                                        
                  /   \      - P O W E R E D   B Y -                         
                 /     \                                                     
                 |  |  |   _    _      __       _____    __    __             
                 |  |  |  | |  | |    /  \     |  _  \  |  |  /  |          
                  \  \/   | |  | |   /    \    | | | |  |  | /  /          
                 / \  \   | |__| |  /  /\  \   | |_| |  |  |/  /          
                |  |  |   |  __  | /  /__\  \  |    /   |      \           
                |  |  |   | |  | | |   __   |  |    \   |  |\   \          
                \     /   | |  | | |  |  |  |  | |\  \  |  | \   \       
                 \___/    |_|  |_| |__|  |__|  |_| \__\ |__|  \__/        
                                                                              
                      - O R C A' S   B I G   F R I E N D -                    
                                      &                                       
                       - I N T E G R A L  F E E D E R -                       
                                                                              
 v1 FN, 2020, v2 2021, v3 2022-2024                                           
------------------------------------------------------------------------------


----------------------
SHARK INTEGRAL PACKAGE
----------------------

Number of atoms                             ...     24
Number of basis functions                   ...    744
Number of shells                            ...    264
Maximum angular momentum                    ...      3
Integral batch strategy                     ... SHARK/LIBINT Hybrid
RI-J (if used) integral strategy            ... SPLIT-RIJ (Revised 2003 algorithm where possible)
Printlevel                                  ...      1
Contraction scheme used                     ... SEGMENTED contraction
Prescreening option                         ... SCHWARTZ
   Thresh                                   ... 2.500e-11
   Tcut                                     ... 2.500e-12
   Tpresel                                  ... 2.500e-12 
Coulomb Range Separation                    ... NOT USED
Exchange Range Separation                   ... NOT USED
Multipole approximations                    ... NOT USED
Finite Nucleus Model                        ... NOT USED
CABS basis                                  ... NOT available
Auxiliary Coulomb fitting basis             ... AVAILABLE
   # of basis functions in Aux-J            ...   1176
   # of shells in Aux-J                     ...    360
   Maximum angular momentum in Aux-J        ...      4
Auxiliary J/K fitting basis                 ... NOT available
Auxiliary Correlation fitting basis         ... NOT available
Auxiliary 'external' fitting basis          ... NOT available

Checking pre-screening integrals            ... done (  0.0 sec) Dimension = 264
Check shell pair data                       ... done (  0.0 sec)
Shell pair information
Shell pair cut-off parameter TPreSel        ...   2.5e-12
Total number of shell pairs                 ...     34980
Shell pairs after pre-screening             ...     22232
Total number of primitive shell pairs       ...    115968
Primitive shell pairs kept                  ...     47307
          la=0 lb=0:   4173 shell pairs
          la=1 lb=0:   6041 shell pairs
          la=1 lb=1:   2099 shell pairs
          la=2 lb=0:   3307 shell pairs
          la=2 lb=1:   2437 shell pairs
          la=2 lb=2:    692 shell pairs
          la=3 lb=0:   1509 shell pairs
          la=3 lb=1:   1188 shell pairs
          la=3 lb=2:    631 shell pairs
          la=3 lb=3:    155 shell pairs

Calculating one electron integrals          ... done (  0.0 sec)
Calculating RI/J V-Matrix + Cholesky decomp.... done (  0.1 sec)
Calculating Nuclear repulsion               ... done (  0.0 sec) ENN=   2646.689237942995 Eh

Diagonalization of the overlap matrix:
Smallest eigenvalue                        ... 5.733e-05
Time for diagonalization                   ...    0.116 sec
Threshold for overlap eigenvalues          ... 1.000e-07
Number of eigenvalues below threshold      ... 0
Time for construction of square roots      ...    0.051 sec
Total time needed                          ...    0.173 sec

-------------------
DFT GRID GENERATION
-------------------

General Integration Accuracy     IntAcc      ... 4.388
Radial Grid Type                 RadialGrid  ... OptM3 with GC (2021)
Angular Grid (max. ang.)         AngularGrid ... 4 (Lebedev-302)
Angular grid pruning method      GridPruning ... 4 (adaptive)
Weight generation scheme         WeightScheme... mBecke (2022)
Basis function cutoff            BFCut       ... 1.0000e-11
Integration weight cutoff        WCut        ... 1.0000e-14
Partially contracted basis set               ... off
Rotationally invariant grid construction     ... off
Angular grids for H and He will be reduced by one unit

Total number of grid points                  ...   145457
Total number of batches                      ...     2285
Average number of points per batch           ...       63
Average number of grid points per atom       ...     6061

--------------------
COSX GRID GENERATION
--------------------

GRIDX 1
-------
General Integration Accuracy     IntAcc      ... 3.816
Radial Grid Type                 RadialGrid  ... OptM3 with GC (2021)
Angular Grid (max. ang.)         AngularGrid ... 1 (Lebedev-50)
Angular grid pruning method      GridPruning ... 4 (adaptive)
Weight generation scheme         WeightScheme... mBecke (2022)
Basis function cutoff            BFCut       ... 1.0000e-11
Integration weight cutoff        WCut        ... 1.0000e-14
Partially contracted basis set               ... on
Rotationally invariant grid construction     ... off
Angular grids for H and He will be reduced by one unit

Total number of grid points                  ...    18279
Total number of batches                      ...      154
Average number of points per batch           ...      118
Average number of grid points per atom       ...      762
UseSFitting                                  ... on

GRIDX 2
-------
General Integration Accuracy     IntAcc      ... 4.020
Radial Grid Type                 RadialGrid  ... OptM3 with GC (2021)
Angular Grid (max. ang.)         AngularGrid ... 2 (Lebedev-110)
Angular grid pruning method      GridPruning ... 4 (adaptive)
Weight generation scheme         WeightScheme... mBecke (2022)
Basis function cutoff            BFCut       ... 1.0000e-11
Integration weight cutoff        WCut        ... 1.0000e-14
Partially contracted basis set               ... on
Rotationally invariant grid construction     ... off
Angular grids for H and He will be reduced by one unit

Total number of grid points                  ...    43267
Total number of batches                      ...      349
Average number of points per batch           ...      123
Average number of grid points per atom       ...     1803
UseSFitting                                  ... on

GRIDX 3
-------
General Integration Accuracy     IntAcc      ... 4.338
Radial Grid Type                 RadialGrid  ... OptM3 with GC (2021)
Angular Grid (max. ang.)         AngularGrid ... 3 (Lebedev-194)
Angular grid pruning method      GridPruning ... 4 (adaptive)
Weight generation scheme         WeightScheme... mBecke (2022)
Basis function cutoff            BFCut       ... 1.0000e-11
Integration weight cutoff        WCut        ... 1.0000e-14
Partially contracted basis set               ... on
Rotationally invariant grid construction     ... off
Angular grids for H and He will be reduced by one unit

Total number of grid points                  ...    95900
Total number of batches                      ...      761
Average number of points per batch           ...      126
Average number of grid points per atom       ...     3996
UseSFitting                                  ... on
Initializing property integral containers    ... done (  0.0 sec)

SHARK setup successfully completed in   3.5 seconds

Maximum memory used throughout the entire STARTUP-calculation: 57.4 MB


           ************************************************************
           *        Program running with 20 parallel MPI-processes    *
           *              working on a common directory               *
           ************************************************************
-------------------------------------------------------------------------------
                                 ORCA GUESS
                   Start orbitals & Density for SCF / CASSCF
-------------------------------------------------------------------------------

------------
SCF SETTINGS
------------
Hamiltonian:
 Density Functional     Method          .... DFT(GTOs)
 Exchange Functional    Exchange        .... B88
   X-Alpha parameter    XAlpha          ....  0.666667
   Becke's b parameter  XBeta           ....  0.004200
 Correlation Functional Correlation     .... LYP
 LDA part of GGA corr.  LDAOpt          .... VWN-5
 Gradients option       PostSCFGGA      .... off
 Hybrid DFT is turned on
   Fraction HF Exchange ScalHFX         ....  0.200000
   Scaling of DF-GGA-X  ScalDFX         ....  0.720000
   Scaling of DF-GGA-C  ScalDFC         ....  0.810000
   Scaling of DF-LDA-C  ScalLDAC        ....  1.000000
   Perturbative correction              ....  0.000000
   NL short-range parameter             ....  4.800000
 RI-approximation to the Coulomb term is turned on
   Number of AuxJ basis functions       .... 1176
   RIJ-COSX (HFX calculated with COS-X)).... on


General Settings:
 Integral files         IntName         .... rf_mecn_freq_B3L_C3_D_B
 Hartree-Fock type      HFTyp           .... UHF
 Total Charge           Charge          ....   -1
 Multiplicity           Mult            ....    2
 Number of Electrons    NEL             ....  191
 Basis Dimension        Dim             ....  744
 Nuclear Repulsion      ENuc            ....   2646.6892379430 Eh

Convergence Acceleration:
 AO-DIIS                CNVDIIS         .... on
   Start iteration      DIISMaxIt       ....     0
   Startup error        DIISStart       ....  0.200000
   # of expansion vecs  DIISMaxEq       ....     5
   Bias factor          DIISBfac        ....   1.050
   Max. coefficient     DIISMaxC        ....  10.000
 MO-DIIS                CNVKDIIS        .... off
 Trust-Rad. Augm. Hess. CNVTRAH         .... auto
   Auto Start mean grad. ratio tolernc. ....  1.125000
   Auto Start start iteration           ....    50
   Auto Start num. interpolation iter.  ....    10
   Max. Number of Micro iterations      ....    24
   Max. Number of Macro iterations      .... Maxiter - #DIIS iter
   Number of Davidson start vectors     ....     2
   Converg. threshold    (grad. norm)   ....   1.000e-05
   Grad. Scal. Fac. for Micro threshold ....   0.100
   Minimum threshold for Micro iter.    ....   1.000e-02
   NR start threshold (gradient norm)   ....   1.000e-04
   Initial trust radius                 ....   0.400
   Minimum AH scaling param. (alpha)    ....   1.000
   Maximum AH scaling param. (alpha)    .... 1000.000
   Quad. conv. algorithm                .... NR
   White noise on init. David. guess    .... on
   Maximum white noise                  ....   0.010
   Pseudo random numbers                .... off
   Inactive MOs                         .... canonical
   Orbital update algorithm             .... Taylor
   Preconditioner                       .... Diag
   Full preconditioner red. dimension   ....   250
 SOSCF                  CNVSOSCF        .... on
   Start iteration      SOSCFMaxIt      ....   150
   Startup grad/error   SOSCFStart      ....  0.001000
   Hessian update       SOSCFHessUp     .... L-BFGS
 Level Shifting         CNVShift        .... on
   Level shift para.    LevelShift      ....    0.2500
   Turn off err/grad.   ShiftErr        ....    0.0000
 Zerner damping         CNVZerner       .... off
 Static damping         CNVDamp         .... on
   Fraction old density DampFac         ....    0.8500
   Max. Damping (<1)    DampMax         ....    0.9800
   Min. Damping (>=0)   DampMin         ....    0.0000
   Turn off err/grad.   DampErr         ....    0.0300

SCF Procedure:
 Maximum # iterations   MaxIter         ....  1500
 SCF integral mode      SCFMode         .... Direct
   Integral package                     .... SHARK and LIBINT hybrid scheme
 Reset frequency        DirectResetFreq ....    20
 Integral Threshold     Thresh          ....  2.500e-11 Eh
 Primitive CutOff       TCut            ....  2.500e-12 Eh

Convergence Tolerance:
 Convergence Check Mode ConvCheckMode   .... Total+1el-Energy
 Convergence forced     ConvForced      .... 0
 Energy Change          TolE            ....  1.000e-08 Eh
 1-El. energy change                    ....  1.000e-05 Eh
 Orbital Gradient       TolG            ....  1.000e-05
 Orbital Rotation angle TolX            ....  1.000e-05
 DIIS Error             TolErr          ....  5.000e-07

------------------------------
INITIAL GUESS: MODEL POTENTIAL
------------------------------
Loading Hartree-Fock densities                     ... done
Calculating cut-offs                               ... done
Initializing the effective Hamiltonian             ... done
Setting up the integral package (SHARK)            ... done
Starting the Coulomb interaction                   ... done (   0.2 sec)
Making the grid                                    ... done (   0.5 sec)
Mapping shells                                     ... done
Starting the XC term evaluation                    ... done (   0.1 sec)
  promolecular density results
     # of electrons  =    189.999547130
     EX              =   -198.264757376
     EC              =     -7.145035643
     EX+EC           =   -205.409793019
Transforming the Hamiltonian                       ... done (   0.1 sec)
Diagonalizing the Hamiltonian                      ... done (   0.1 sec)
Back transforming the eigenvectors                 ... done (   0.0 sec)
Now organizing SCF variables                       ... done
                      ------------------
                      INITIAL GUESS DONE (   1.2 sec)
                      ------------------
             **** ENERGY FILE WAS UPDATED (rf_mecn_freq_B3L_C3_D_B.en.tmp) ****
Finished Guess after   1.9 sec
Maximum memory used throughout the entire GUESS-calculation: 46.3 MB


           ************************************************************
           *        Program running with 20 parallel MPI-processes    *
           *              working on a common directory               *
           ************************************************************

-------------------------------------------------------------------------------------------
                                      ORCA LEAN-SCF
                              memory conserving SCF solver
-------------------------------------------------------------------------------------------

--------------------
CPCM SOLVATION MODEL
--------------------
CPCM parameters:
  Epsilon                                         ...      35.6880
  Refrac                                          ...       1.3442
  Rsolv                                           ...       1.3000
  Surface type                                    ... GAUSSIAN VDW
  Discretization scheme                           ... Constant charge density
    Threshold for H atoms                         ...       5.0000 (charges/Ang^2)
    Threshold for non-H atoms                     ...       5.0000 (charges/Ang^2)
  Epsilon function type                           ...         CPCM
Solvent:                                          ... ACETONITRILE
SMD-CDS solvent descriptors:
  Soln                                            ...       1.3442
  Soln25                                          ...       1.3416
  Sola                                            ...       0.0700
  Solb                                            ...       0.3200
  Solg                                            ...      41.2500
  Solc                                            ...       0.0000
  Solh                                            ...       0.0000
Radii:
  Scheme                                          ... Element-dependent radii
  Radius for C  used is    3.4960 Bohr (=   1.8500 Ang.)
  Radius for O  used is    4.0969 Bohr (=   2.1680 Ang.)
  Radius for F  used is    3.2692 Bohr (=   1.7300 Ang.)
Calculating surface                               ...        done! (  0.0s)
Cavity surface points                             ...         2148
Cavity Volume                                     ...    2110.1933
Cavity Surface-area                               ...    1098.7641
Calculating surface distance matrix               ...        done! (  0.0s)
Performing Cholesky decomposition & store         ...        done! (  0.1s)
Overall time for CPCM initialization              ...                 0.1s

----------------------------------------D-I-I-S--------------------------------------------
Iteration    Energy (Eh)           Delta-E    RMSDP     MaxDP     DIISErr   Damp  Time(sec)
-------------------------------------------------------------------------------------------
               ***  Starting incremental Fock matrix formation  ***
    1    -1852.6996150116460740     0.00e+00  2.81e-04  3.93e-02  1.73e-01  0.850   7.1
Warning: op=0 Small HOMO/LUMO gap (   0.051) - skipping pre-diagonalization
         Will do a full diagonalization
    2    -1852.8672611252445677    -1.68e-01  3.69e-04  7.79e-02  1.20e-01  0.850   4.9
                               ***Turning on AO-DIIS***
    3    -1852.9589771589785414    -9.17e-02  1.65e-04  3.08e-02  7.34e-02  0.850   4.1
    4    -1853.0137900275726679    -5.48e-02  8.14e-05  9.53e-03  5.51e-02  0.850   4.0
    5    -1853.0528137886426521    -3.90e-02  5.12e-05  3.99e-03  4.55e-02  0.850   4.0
    6    -1853.0837363621035365    -3.09e-02  4.02e-05  2.82e-03  3.91e-02  0.850   3.9
    7    -1853.1094542685282249    -2.57e-02  3.56e-05  2.48e-03  3.38e-02  0.850   3.8
    8    -1853.1312047121796240    -2.18e-02  3.19e-05  2.18e-03  2.86e-02  0.850   3.7
    9    -1853.1493742600282530    -1.82e-02  1.84e-04  1.33e-02  2.38e-02  0.000   3.7
   10    -1853.2449251850980545    -9.56e-02  1.67e-05  1.62e-03  3.12e-03  0.000   4.1
                              *** Initializing SOSCF ***
---------------------------------------S-O-S-C-F--------------------------------------
Iteration    Energy (Eh)           Delta-E    RMSDP     MaxDP     MaxGrad    Time(sec)
--------------------------------------------------------------------------------------
   11    -1853.2450879904704379    -1.63e-04  9.40e-06  1.15e-03  9.15e-04     4.0
               *** Restarting incremental Fock matrix formation ***
   12    -1853.2451283694422273    -4.04e-05  1.56e-05  1.72e-03  1.26e-03     6.9
   13    -1853.2451456910725938    -1.73e-05  1.48e-05  1.28e-03  7.83e-04     5.0
   14    -1853.2451546981633328    -9.01e-06  6.54e-06  5.78e-04  6.61e-04     5.2
   15    -1853.2451593687133027    -4.67e-06  3.57e-06  5.91e-04  9.35e-05     4.8
   16    -1853.2451596335799877    -2.65e-07  2.08e-06  2.21e-04  1.20e-04     4.4
   17    -1853.2451603937001892    -7.60e-07  8.78e-07  9.94e-05  2.73e-05     4.5
   18    -1853.2451604111088272    -1.74e-08  5.19e-07  7.21e-05  2.02e-05     3.9
   19    -1853.2451604438369941    -3.27e-08  2.03e-07  2.81e-05  5.98e-06     3.6
   20    -1853.2451604297134509     1.41e-08  9.92e-08  1.22e-05  7.51e-06     3.2
   21    -1853.2451604646435044    -3.49e-08  9.52e-08  8.25e-06  1.04e-06     3.1
                  *** Gradient check signals convergence ***

               *****************************************************
               *                     SUCCESS                       *
               *           SCF CONVERGED AFTER  21 CYCLES          *
               *****************************************************

Recomputing exchange energy using gridx3       ... done (    9.188 sec)
Old exchange energy                            :    -39.798018728 Eh
New exchange energy                            :    -39.798064660 Eh
Exchange energy change after final integration :     -0.000045932 Eh
Total energy after final integration           :  -1853.245206397 Eh

SMD CDS free energy correction energy :                 3.21361     Kcal/mol
Total Energy after SMD CDS correction =             -1853.240085185 Eh
             **** ENERGY FILE WAS UPDATED (rf_mecn_freq_B3L_C3_D_B.en.tmp) ****

----------------
TOTAL SCF ENERGY
----------------

Total Energy       :      -1853.24008518539563 Eh          -50429.22649 eV

Components:
Nuclear Repulsion  :       2646.68923794299508 Eh           72020.07559 eV
Electronic Energy  :      -4499.85306717541789 Eh         -122447.22705 eV
One Electron Energy:      -7868.57872918983958 Eh         -214114.91261 eV
Two Electron Energy:       3368.72566201442123 Eh           91667.68556 eV
CPCM Dielectric    :         -0.08133123222001 Eh              -2.21314 eV
SMD CDS (Gcds)     :          0.00512121167637 Eh               0.13936 eV

Virial components:
Potential Energy   :      -3700.20968437355896 Eh         -100687.82438 eV
Kinetic Energy     :       1846.96959918816356 Eh           50258.59789 eV
Virial Ratio       :          2.00339501310687

DFT components:
N(Alpha)           :       96.000007861434 electrons
N(Beta)            :       94.999996552532 electrons
N(Total)           :      191.000004413966 electrons
E(X)               :     -158.615905729639 Eh       
E(C)               :       -8.381568778288 Eh       
E(XC)              :     -166.997474507927 Eh       

CPCM Solvation Model Properties:
Surface-charge          :          0.98918963282371
Corrected charge        :          1.00000000000000
Outlying charge corr.   :          0.00000650498158 Eh               0.00018 eV
Free-energy (cav+disp)  :          0.00512121167637 Eh               0.13936 eV

---------------
SCF CONVERGENCE
---------------

  Last Energy change         ...    3.4930e-08  Tolerance :   1.0000e-08
  Last MAX-Density change    ...    8.2464e-06  Tolerance :   1.0000e-07
  Last RMS-Density change    ...    9.5243e-08  Tolerance :   5.0000e-09
  Last DIIS Error            ...    9.1488e-04  Tolerance :   5.0000e-07
  Last Orbital Gradient      ...    1.0387e-06  Tolerance :   1.0000e-05
  Last Orbital Rotation      ...    2.7267e-06  Tolerance :   1.0000e-05


----------------------
UHF SPIN CONTAMINATION
----------------------

Warning: in a DFT calculation there is little theoretical justification to 
         calculate <S**2> as in Hartree-Fock theory. We will do it anyways
         but you should keep in mind that the values have only limited relevance

Expectation value of <S**2>     :     0.754531
Ideal value S*(S+1) for S=0.5   :     0.750000
Deviation                       :     0.004531

----------------
ORBITAL ENERGIES
----------------
                 SPIN UP ORBITALS
  NO   OCC          E(Eh)            E(eV) 
   0   1.0000     -24.744114      -673.3216 
   1   1.0000     -24.743364      -673.3012 
   2   1.0000     -24.742697      -673.2830 
   3   1.0000     -24.742375      -673.2742 
   4   1.0000     -24.741025      -673.2375 
   5   1.0000     -24.740560      -673.2249 
   6   1.0000     -24.740398      -673.2205 
   7   1.0000     -24.736700      -673.1198 
   8   1.0000     -24.735333      -673.0826 
   9   1.0000     -24.731886      -672.9888 
  10   1.0000     -24.729284      -672.9180 
  11   1.0000     -24.718023      -672.6116 
  12   1.0000     -24.692204      -671.9090 
  13   1.0000     -24.690108      -671.8520 
  14   1.0000     -19.066325      -518.8211 
  15   1.0000     -19.062038      -518.7044 
  16   1.0000     -10.460422      -284.6425 
  17   1.0000     -10.405693      -283.1533 
  18   1.0000     -10.405523      -283.1487 
  19   1.0000     -10.399028      -282.9719 
  20   1.0000     -10.390504      -282.7400 
  21   1.0000     -10.340528      -281.3801 
  22   1.0000     -10.294571      -280.1295 
  23   1.0000     -10.254916      -279.0505 
  24   1.0000      -1.352779       -36.8110 
  25   1.0000      -1.325859       -36.0784 
  26   1.0000      -1.309124       -35.6231 
  27   1.0000      -1.304092       -35.4861 
  28   1.0000      -1.290548       -35.1176 
  29   1.0000      -1.271538       -34.6003 
  30   1.0000      -1.265748       -34.4428 
  31   1.0000      -1.259500       -34.2727 
  32   1.0000      -1.257217       -34.2106 
  33   1.0000      -1.251982       -34.0682 
  34   1.0000      -1.250225       -34.0204 
  35   1.0000      -1.245938       -33.9037 
  36   1.0000      -1.230847       -33.4930 
  37   1.0000      -1.196916       -32.5697 
  38   1.0000      -1.027263       -27.9532 
  39   1.0000      -0.945731       -25.7347 
  40   1.0000      -0.845223       -22.9997 
  41   1.0000      -0.828728       -22.5508 
  42   1.0000      -0.795776       -21.6542 
  43   1.0000      -0.753099       -20.4929 
  44   1.0000      -0.712934       -19.3999 
  45   1.0000      -0.686247       -18.6737 
  46   1.0000      -0.658508       -17.9189 
  47   1.0000      -0.647486       -17.6190 
  48   1.0000      -0.642221       -17.4757 
  49   1.0000      -0.636841       -17.3293 
  50   1.0000      -0.624081       -16.9821 
  51   1.0000      -0.618810       -16.8387 
  52   1.0000      -0.617504       -16.8031 
  53   1.0000      -0.604319       -16.4444 
  54   1.0000      -0.601549       -16.3690 
  55   1.0000      -0.589236       -16.0339 
  56   1.0000      -0.586629       -15.9630 
  57   1.0000      -0.578203       -15.7337 
  58   1.0000      -0.574702       -15.6384 
  59   1.0000      -0.560932       -15.2637 
  60   1.0000      -0.542589       -14.7646 
  61   1.0000      -0.515929       -14.0391 
  62   1.0000      -0.512598       -13.9485 
  63   1.0000      -0.509567       -13.8660 
  64   1.0000      -0.504333       -13.7236 
  65   1.0000      -0.498590       -13.5673 
  66   1.0000      -0.497265       -13.5313 
  67   1.0000      -0.491375       -13.3710 
  68   1.0000      -0.485267       -13.2048 
  69   1.0000      -0.482030       -13.1167 
  70   1.0000      -0.474983       -12.9249 
  71   1.0000      -0.472002       -12.8438 
  72   1.0000      -0.469442       -12.7742 
  73   1.0000      -0.462492       -12.5850 
  74   1.0000      -0.459004       -12.4901 
  75   1.0000      -0.454519       -12.3681 
  76   1.0000      -0.451637       -12.2897 
  77   1.0000      -0.450254       -12.2520 
  78   1.0000      -0.444068       -12.0837 
  79   1.0000      -0.442064       -12.0292 
  80   1.0000      -0.441413       -12.0115 
  81   1.0000      -0.440775       -11.9941 
  82   1.0000      -0.433840       -11.8054 
  83   1.0000      -0.431740       -11.7482 
  84   1.0000      -0.429955       -11.6997 
  85   1.0000      -0.422720       -11.5028 
  86   1.0000      -0.408346       -11.1117 
  87   1.0000      -0.403235       -10.9726 
  88   1.0000      -0.398858       -10.8535 
  89   1.0000      -0.386159       -10.5079 
  90   1.0000      -0.378250       -10.2927 
  91   1.0000      -0.348983        -9.4963 
  92   1.0000      -0.266945        -7.2639 
  93   1.0000      -0.253039        -6.8855 
  94   1.0000      -0.240152        -6.5349 
  95   1.0000      -0.220723        -6.0062 
  96   0.0000      -0.004845        -0.1318 
  97   0.0000       0.014113         0.3840 
  98   0.0000       0.036876         1.0034 
  99   0.0000       0.054058         1.4710 
 100   0.0000       0.067964         1.8494 
 101   0.0000       0.090759         2.4697 
 102   0.0000       0.101246         2.7550 
 103   0.0000       0.109217         2.9719 
 104   0.0000       0.120770         3.2863 
 105   0.0000       0.138687         3.7739 
 106   0.0000       0.142832         3.8867 

                 SPIN DOWN ORBITALS
  NO   OCC          E(Eh)            E(eV) 
   0   1.0000     -24.744114      -673.3216 
   1   1.0000     -24.743364      -673.3012 
   2   1.0000     -24.742697      -673.2830 
   3   1.0000     -24.742370      -673.2741 
   4   1.0000     -24.741023      -673.2375 
   5   1.0000     -24.740553      -673.2247 
   6   1.0000     -24.740396      -673.2204 
   7   1.0000     -24.736607      -673.1173 
   8   1.0000     -24.735302      -673.0818 
   9   1.0000     -24.729056      -672.9118 
  10   1.0000     -24.727922      -672.8810 
  11   1.0000     -24.716481      -672.5696 
  12   1.0000     -24.691849      -671.8994 
  13   1.0000     -24.689509      -671.8357 
  14   1.0000     -19.065229      -518.7913 
  15   1.0000     -19.061561      -518.6914 
  16   1.0000     -10.460414      -284.6423 
  17   1.0000     -10.405657      -283.1523 
  18   1.0000     -10.405485      -283.1476 
  19   1.0000     -10.398634      -282.9612 
  20   1.0000     -10.391161      -282.7579 
  21   1.0000     -10.341050      -281.3943 
  22   1.0000     -10.280778      -279.7542 
  23   1.0000     -10.254337      -279.0347 
  24   1.0000      -1.352772       -36.8108 
  25   1.0000      -1.325687       -36.0738 
  26   1.0000      -1.308875       -35.6163 
  27   1.0000      -1.303931       -35.4818 
  28   1.0000      -1.289081       -35.0777 
  29   1.0000      -1.265740       -34.4425 
  30   1.0000      -1.264108       -34.3981 
  31   1.0000      -1.259493       -34.2726 
  32   1.0000      -1.257148       -34.2087 
  33   1.0000      -1.250341       -34.0235 
  34   1.0000      -1.249567       -34.0025 
  35   1.0000      -1.245771       -33.8992 
  36   1.0000      -1.228458       -33.4281 
  37   1.0000      -1.195717       -32.5371 
  38   1.0000      -1.025615       -27.9084 
  39   1.0000      -0.943930       -25.6856 
  40   1.0000      -0.843382       -22.9496 
  41   1.0000      -0.820584       -22.3292 
  42   1.0000      -0.788178       -21.4474 
  43   1.0000      -0.749725       -20.4010 
  44   1.0000      -0.711564       -19.3626 
  45   1.0000      -0.685040       -18.6409 
  46   1.0000      -0.654227       -17.8024 
  47   1.0000      -0.646731       -17.5984 
  48   1.0000      -0.640267       -17.4225 
  49   1.0000      -0.636712       -17.3258 
  50   1.0000      -0.623524       -16.9670 
  51   1.0000      -0.617693       -16.8083 
  52   1.0000      -0.615738       -16.7551 
  53   1.0000      -0.603576       -16.4241 
  54   1.0000      -0.599442       -16.3116 
  55   1.0000      -0.587464       -15.9857 
  56   1.0000      -0.583676       -15.8826 
  57   1.0000      -0.575686       -15.6652 
  58   1.0000      -0.569830       -15.5058 
  59   1.0000      -0.558258       -15.1910 
  60   1.0000      -0.541074       -14.7234 
  61   1.0000      -0.515732       -14.0338 
  62   1.0000      -0.509633       -13.8678 
  63   1.0000      -0.506081       -13.7712 
  64   1.0000      -0.500755       -13.6262 
  65   1.0000      -0.498429       -13.5629 
  66   1.0000      -0.491483       -13.3739 
  67   1.0000      -0.484917       -13.1953 
  68   1.0000      -0.483037       -13.1441 
  69   1.0000      -0.480174       -13.0662 
  70   1.0000      -0.472488       -12.8571 
  71   1.0000      -0.470252       -12.7962 
  72   1.0000      -0.468670       -12.7532 
  73   1.0000      -0.462420       -12.5831 
  74   1.0000      -0.457606       -12.4521 
  75   1.0000      -0.453157       -12.3310 
  76   1.0000      -0.451496       -12.2858 
  77   1.0000      -0.449834       -12.2406 
  78   1.0000      -0.443751       -12.0751 
  79   1.0000      -0.441846       -12.0232 
  80   1.0000      -0.440706       -11.9922 
  81   1.0000      -0.436404       -11.8752 
  82   1.0000      -0.432580       -11.7711 
  83   1.0000      -0.430836       -11.7237 
  84   1.0000      -0.429151       -11.6778 
  85   1.0000      -0.421229       -11.4622 
  86   1.0000      -0.407466       -11.0877 
  87   1.0000      -0.401395       -10.9225 
  88   1.0000      -0.396791       -10.7972 
  89   1.0000      -0.384521       -10.4634 
  90   1.0000      -0.375413       -10.2155 
  91   1.0000      -0.346586        -9.4311 
  92   1.0000      -0.252246        -6.8640 
  93   1.0000      -0.240381        -6.5411 
  94   1.0000      -0.238440        -6.4883 
  95   0.0000      -0.101855        -2.7716 
  96   0.0000      -0.003182        -0.0866 
  97   0.0000       0.015523         0.4224 
  98   0.0000       0.041166         1.1202 
  99   0.0000       0.056898         1.5483 
 100   0.0000       0.072447         1.9714 
 101   0.0000       0.093861         2.5541 
 102   0.0000       0.103135         2.8064 
 103   0.0000       0.112161         3.0521 
 104   0.0000       0.124375         3.3844 
 105   0.0000       0.140107         3.8125 
*Only the first 10 virtual orbitals were printed.

                    ********************************
                    * MULLIKEN POPULATION ANALYSIS *
                    ********************************

--------------------------------------------
MULLIKEN ATOMIC CHARGES AND SPIN POPULATIONS
--------------------------------------------
   0 C :    0.148746    0.019829
   1 O :   -0.463261    0.035725
   2 O :   -0.486603    0.017391
   3 C :    0.368921   -0.022721
   4 C :    0.093534    0.807483
   5 C :    0.373338    0.009040
   6 C :    0.327812    0.007478
   7 C :    0.312137    0.002601
   8 C :    0.325346    0.000709
   9 C :    0.475787    0.000286
  10 F :   -0.216749    0.009708
  11 F :   -0.224260    0.006011
  12 F :   -0.174939    0.072964
  13 F :   -0.186453    0.003973
  14 F :   -0.194044    0.026691
  15 F :   -0.175242    0.001647
  16 F :   -0.172821    0.000933
  17 F :   -0.168890   -0.000044
  18 F :   -0.169647    0.000164
  19 F :   -0.166723    0.000005
  20 F :   -0.164084    0.000041
  21 F :   -0.155320   -0.000006
  22 F :   -0.153779    0.000085
  23 F :   -0.152807    0.000007
Sum of atomic charges         :   -1.0000000
Sum of atomic spin populations:    1.0000000

-----------------------------------------------------
MULLIKEN REDUCED ORBITAL CHARGES AND SPIN POPULATIONS
-----------------------------------------------------
CHARGE
  0 C s       :     3.060664  s :     3.060664
      pz      :     0.906113  p :     2.521358
      px      :     0.814036
      py      :     0.801208
      dz2     :     0.053734  d :     0.244274
      dxz     :     0.014719
      dyz     :     0.067997
      dx2y2   :     0.037994
      dxy     :     0.069830
      f0      :     0.003400  f :     0.024958
      f+1     :     0.001064
      f-1     :     0.006540
      f+2     :     0.004299
      f-2     :     0.002607
      f+3     :     0.003841
      f-3     :     0.003206

  1 O s       :     3.767936  s :     3.767936
      pz      :     1.616566  p :     4.666488
      px      :     1.522973
      py      :     1.526949
      dz2     :     0.004711  d :     0.027171
      dxz     :     0.003619
      dyz     :     0.008020
      dx2y2   :     0.005039
      dxy     :     0.005782
      f0      :     0.000167  f :     0.001666
      f+1     :     0.000033
      f-1     :     0.000434
      f+2     :     0.000329
      f-2     :     0.000345
      f+3     :     0.000185
      f-3     :     0.000173

  2 O s       :     3.769883  s :     3.769883
      pz      :     1.772614  p :     4.688120
      px      :     1.531880
      py      :     1.383626
      dz2     :     0.003230  d :     0.026957
      dxz     :     0.000770
      dyz     :     0.006914
      dx2y2   :     0.007652
      dxy     :     0.008391
      f0      :     0.000183  f :     0.001644
      f+1     :     0.000041
      f-1     :     0.000299
      f+2     :     0.000269
      f-2     :     0.000086
      f+3     :     0.000430
      f-3     :     0.000336

  3 C s       :     3.099100  s :     3.099100
      pz      :     0.940284  p :     2.257247
      px      :     0.724228
      py      :     0.592735
      dz2     :     0.048465  d :     0.248930
      dxz     :     0.042310
      dyz     :     0.054185
      dx2y2   :     0.050134
      dxy     :     0.053836
      f0      :     0.002596  f :     0.025802
      f+1     :     0.003586
      f-1     :     0.003274
      f+2     :     0.004543
      f-2     :     0.002493
      f+3     :     0.005692
      f-3     :     0.003618

  4 C s       :     3.253572  s :     3.253572
      pz      :     0.948353  p :     2.494841
      px      :     0.884577
      py      :     0.661911
      dz2     :     0.019107  d :     0.140790
      dxz     :     0.017837
      dyz     :     0.026803
      dx2y2   :     0.027834
      dxy     :     0.049208
      f0      :     0.001371  f :     0.017264
      f+1     :     0.001285
      f-1     :     0.003379
      f+2     :     0.002443
      f-2     :     0.001732
      f+3     :     0.004584
      f-3     :     0.002471

  5 C s       :     3.088405  s :     3.088405
      pz      :     0.617340  p :     2.226456
      px      :     0.896083
      py      :     0.713032
      dz2     :     0.067098  d :     0.284602
      dxz     :     0.068072
      dyz     :     0.055778
      dx2y2   :     0.038579
      dxy     :     0.055075
      f0      :     0.005174  f :     0.027198
      f+1     :     0.002831
      f-1     :     0.005760
      f+2     :     0.003993
      f-2     :     0.004703
      f+3     :     0.002599
      f-3     :     0.002138

  6 C s       :     3.156754  s :     3.156754
      pz      :     0.610494  p :     2.204475
      px      :     0.873614
      py      :     0.720367
      dz2     :     0.075460  d :     0.282914
      dxz     :     0.055258
      dyz     :     0.054663
      dx2y2   :     0.041081
      dxy     :     0.056451
      f0      :     0.005745  f :     0.028046
      f+1     :     0.002750
      f-1     :     0.004775
      f+2     :     0.005405
      f-2     :     0.004754
      f+3     :     0.002256
      f-3     :     0.002361

  7 C s       :     3.151051  s :     3.151051
      pz      :     0.599886  p :     2.224755
      px      :     0.919651
      py      :     0.705218
      dz2     :     0.068392  d :     0.284029
      dxz     :     0.063244
      dyz     :     0.059783
      dx2y2   :     0.033087
      dxy     :     0.059523
      f0      :     0.004762  f :     0.028028
      f+1     :     0.003949
      f-1     :     0.006791
      f+2     :     0.003429
      f-2     :     0.004032
      f+3     :     0.002578
      f-3     :     0.002487

  8 C s       :     3.132023  s :     3.132023
      pz      :     0.639882  p :     2.235060
      px      :     0.902036
      py      :     0.693142
      dz2     :     0.059641  d :     0.279472
      dxz     :     0.056172
      dyz     :     0.068626
      dx2y2   :     0.037913
      dxy     :     0.057120
      f0      :     0.004476  f :     0.028099
      f+1     :     0.003678
      f-1     :     0.007341
      f+2     :     0.003192
      f-2     :     0.003045
      f+3     :     0.003376
      f-3     :     0.002991

  9 C s       :     3.024224  s :     3.024224
      pz      :     0.679997  p :     2.115179
      px      :     0.777661
      py      :     0.657521
      dz2     :     0.059694  d :     0.344435
      dxz     :     0.071200
      dyz     :     0.081681
      dx2y2   :     0.065933
      dxy     :     0.065927
      f0      :     0.005871  f :     0.040375
      f+1     :     0.006075
      f-1     :     0.008676
      f+2     :     0.003489
      f-2     :     0.004119
      f+3     :     0.007741
      f-3     :     0.004405

 10 F s       :     3.907065  s :     3.907065
      pz      :     1.899536  p :     5.294229
      px      :     1.896178
      py      :     1.498515
      dz2     :     0.002115  d :     0.014808
      dxz     :     0.000296
      dyz     :     0.003798
      dx2y2   :     0.005517
      dxy     :     0.003082
      f0      :     0.000069  f :     0.000648
      f+1     :     0.000011
      f-1     :     0.000130
      f+2     :     0.000105
      f-2     :     0.000020
      f+3     :     0.000127
      f-3     :     0.000186

 11 F s       :     3.911028  s :     3.911028
      pz      :     1.826196  p :     5.298204
      px      :     1.656751
      py      :     1.815257
      dz2     :     0.002093  d :     0.014402
      dxz     :     0.003759
      dyz     :     0.001884
      dx2y2   :     0.002753
      dxy     :     0.003914
      f0      :     0.000074  f :     0.000626
      f+1     :     0.000084
      f-1     :     0.000035
      f+2     :     0.000071
      f-2     :     0.000155
      f+3     :     0.000082
      f-3     :     0.000125

 12 F s       :     3.917553  s :     3.917553
      pz      :     1.808659  p :     5.239318
      px      :     1.912437
      py      :     1.518221
      dz2     :     0.002480  d :     0.017337
      dxz     :     0.000592
      dyz     :     0.005599
      dx2y2   :     0.005402
      dxy     :     0.003263
      f0      :     0.000075  f :     0.000731
      f+1     :     0.000002
      f-1     :     0.000148
      f+2     :     0.000176
      f-2     :     0.000050
      f+3     :     0.000114
      f-3     :     0.000166

 13 F s       :     3.920143  s :     3.920143
      pz      :     1.715684  p :     5.249636
      px      :     1.910878
      py      :     1.623074
      dz2     :     0.002500  d :     0.015990
      dxz     :     0.001416
      dyz     :     0.006360
      dx2y2   :     0.003202
      dxy     :     0.002512
      f0      :     0.000074  f :     0.000683
      f+1     :     0.000013
      f-1     :     0.000178
      f+2     :     0.000197
      f-2     :     0.000095
      f+3     :     0.000061
      f-3     :     0.000066

 14 F s       :     3.913628  s :     3.913628
      pz      :     1.551069  p :     5.264840
      px      :     1.882348
      py      :     1.831423
      dz2     :     0.005543  d :     0.014936
      dxz     :     0.003436
      dyz     :     0.004292
      dx2y2   :     0.000730
      dxy     :     0.000934
      f0      :     0.000162  f :     0.000640
      f+1     :     0.000135
      f-1     :     0.000193
      f+2     :     0.000057
      f-2     :     0.000079
      f+3     :     0.000007
      f-3     :     0.000008

 15 F s       :     3.915890  s :     3.915890
      pz      :     1.647048  p :     5.242239
      px      :     1.880156
      py      :     1.715035
      dz2     :     0.003647  d :     0.016408
      dxz     :     0.002698
      dyz     :     0.006077
      dx2y2   :     0.001846
      dxy     :     0.002140
      f0      :     0.000088  f :     0.000705
      f+1     :     0.000063
      f-1     :     0.000219
      f+2     :     0.000132
      f-2     :     0.000138
      f+3     :     0.000038
      f-3     :     0.000028

 16 F s       :     3.918537  s :     3.918537
      pz      :     1.628831  p :     5.236999
      px      :     1.860555
      py      :     1.747613
      dz2     :     0.003923  d :     0.016569
      dxz     :     0.003325
      dyz     :     0.005569
      dx2y2   :     0.001655
      dxy     :     0.002096
      f0      :     0.000095  f :     0.000716
      f+1     :     0.000094
      f-1     :     0.000206
      f+2     :     0.000111
      f-2     :     0.000152
      f+3     :     0.000031
      f-3     :     0.000027

 17 F s       :     3.916122  s :     3.916122
      pz      :     1.740620  p :     5.235431
      px      :     1.898482
      py      :     1.596329
      dz2     :     0.002390  d :     0.016623
      dxz     :     0.001496
      dyz     :     0.006278
      dx2y2   :     0.003543
      dxy     :     0.002916
      f0      :     0.000079  f :     0.000714
      f+1     :     0.000012
      f-1     :     0.000161
      f+2     :     0.000197
      f-2     :     0.000108
      f+3     :     0.000079
      f-3     :     0.000079

 18 F s       :     3.916224  s :     3.916224
      pz      :     1.497501  p :     5.236168
      px      :     1.898281
      py      :     1.840386
      dz2     :     0.007064  d :     0.016544
      dxz     :     0.003651
      dyz     :     0.004540
      dx2y2   :     0.000557
      dxy     :     0.000732
      f0      :     0.000247  f :     0.000711
      f+1     :     0.000135
      f-1     :     0.000221
      f+2     :     0.000043
      f-2     :     0.000058
      f+3     :     0.000004
      f-3     :     0.000003

 19 F s       :     3.915927  s :     3.915927
      pz      :     1.825825  p :     5.233596
      px      :     1.887212
      py      :     1.520559
      dz2     :     0.002072  d :     0.016490
      dxz     :     0.000798
      dyz     :     0.004996
      dx2y2   :     0.004870
      dxy     :     0.003754
      f0      :     0.000079  f :     0.000710
      f+1     :     0.000009
      f-1     :     0.000116
      f+2     :     0.000164
      f-2     :     0.000074
      f+3     :     0.000133
      f-3     :     0.000136

 20 F s       :     3.913811  s :     3.913811
      pz      :     1.479410  p :     5.232930
      px      :     1.870802
      py      :     1.882718
      dz2     :     0.007686  d :     0.016620
      dxz     :     0.004647
      dyz     :     0.003334
      dx2y2   :     0.000479
      dxy     :     0.000473
      f0      :     0.000284  f :     0.000723
      f+1     :     0.000217
      f-1     :     0.000139
      f+2     :     0.000037
      f-2     :     0.000041
      f+3     :     0.000002
      f-3     :     0.000003

 21 F s       :     3.912145  s :     3.912145
      pz      :     1.855048  p :     5.225763
      px      :     1.881236
      py      :     1.489480
      dz2     :     0.002255  d :     0.016653
      dxz     :     0.000482
      dyz     :     0.004445
      dx2y2   :     0.005747
      dxy     :     0.003724
      f0      :     0.000079  f :     0.000758
      f+1     :     0.000011
      f-1     :     0.000132
      f+2     :     0.000149
      f-2     :     0.000046
      f+3     :     0.000152
      f-3     :     0.000189

 22 F s       :     3.911401  s :     3.911401
      pz      :     1.876613  p :     5.224962
      px      :     1.585407
      py      :     1.762942
      dz2     :     0.002366  d :     0.016652
      dxz     :     0.002868
      dyz     :     0.001367
      dx2y2   :     0.004006
      dxy     :     0.006045
      f0      :     0.000072  f :     0.000763
      f+1     :     0.000105
      f-1     :     0.000051
      f+2     :     0.000035
      f-2     :     0.000119
      f+3     :     0.000154
      f-3     :     0.000227

 23 F s       :     3.910980  s :     3.910980
      pz      :     1.448671  p :     5.224263
      px      :     1.885798
      py      :     1.889795
      dz2     :     0.008917  d :     0.016794
      dxz     :     0.004079
      dyz     :     0.003377
      dx2y2   :     0.000201
      dxy     :     0.000219
      f0      :     0.000377  f :     0.000769
      f+1     :     0.000201
      f-1     :     0.000158
      f+2     :     0.000015
      f-2     :     0.000016
      f+3     :     0.000001
      f-3     :     0.000001


SPIN
  0 C s       :     0.007589  s :     0.007589
      pz      :     0.016166  p :     0.010482
      px      :    -0.003172
      py      :    -0.002512
      dz2     :     0.001282  d :     0.001531
      dxz     :     0.000452
      dyz     :     0.000016
      dx2y2   :     0.000073
      dxy     :    -0.000292
      f0      :     0.000046  f :     0.000227
      f+1     :     0.000032
      f-1     :     0.000090
      f+2     :     0.000026
      f-2     :    -0.000012
      f+3     :     0.000058
      f-3     :    -0.000013

  1 O s       :     0.000138  s :     0.000138
      pz      :     0.034679  p :     0.035639
      px      :    -0.001009
      py      :     0.001969
      dz2     :    -0.000026  d :    -0.000043
      dxz     :     0.000011
      dyz     :    -0.000028
      dx2y2   :     0.000008
      dxy     :    -0.000008
      f0      :    -0.000001  f :    -0.000007
      f+1     :     0.000002
      f-1     :    -0.000004
      f+2     :    -0.000003
      f-2     :    -0.000003
      f+3     :     0.000000
      f-3     :     0.000002

  2 O s       :     0.000698  s :     0.000698
      pz      :     0.003403  p :     0.016692
      px      :     0.012447
      py      :     0.000842
      dz2     :     0.000010  d :    -0.000002
      dxz     :    -0.000001
      dyz     :     0.000010
      dx2y2   :    -0.000009
      dxy     :    -0.000011
      f0      :     0.000001  f :     0.000004
      f+1     :     0.000002
      f-1     :     0.000003
      f+2     :     0.000001
      f-2     :     0.000000
      f+3     :    -0.000001
      f-3     :    -0.000003

  3 C s       :     0.000321  s :     0.000321
      pz      :    -0.025052  p :    -0.041870
      px      :    -0.008731
      py      :    -0.008086
      dz2     :     0.010458  d :     0.017513
      dxz     :     0.006461
      dyz     :    -0.000155
      dx2y2   :    -0.000331
      dxy     :     0.001080
      f0      :     0.000026  f :     0.001315
      f+1     :     0.000620
      f-1     :     0.000077
      f+2     :     0.000168
      f-2     :     0.000032
      f+3     :     0.000010
      f-3     :     0.000381

  4 C s       :     0.054223  s :     0.054223
      pz      :     0.571137  p :     0.751502
      px      :     0.053407
      py      :     0.126957
      dz2     :    -0.000996  d :     0.003529
      dxz     :     0.001220
      dyz     :     0.001092
      dx2y2   :     0.000773
      dxy     :     0.001440
      f0      :    -0.000524  f :    -0.001770
      f+1     :    -0.000371
      f-1     :    -0.000479
      f+2     :    -0.000126
      f-2     :    -0.000172
      f+3     :    -0.000004
      f-3     :    -0.000095

  5 C s       :    -0.021098  s :    -0.021098
      pz      :     0.024353  p :     0.008741
      px      :    -0.019004
      py      :     0.003392
      dz2     :     0.000466  d :     0.019993
      dxz     :     0.010611
      dyz     :     0.003993
      dx2y2   :     0.002924
      dxy     :     0.002000
      f0      :     0.000554  f :     0.001403
      f+1     :     0.000018
      f-1     :     0.000008
      f+2     :     0.000272
      f-2     :     0.000380
      f+3     :     0.000149
      f-3     :     0.000022

  6 C s       :    -0.000301  s :    -0.000301
      pz      :     0.002801  p :     0.006703
      px      :    -0.002437
      py      :     0.006339
      dz2     :     0.000112  d :     0.001021
      dxz     :     0.000058
      dyz     :     0.000197
      dx2y2   :     0.000662
      dxy     :    -0.000007
      f0      :     0.000018  f :     0.000055
      f+1     :     0.000011
      f-1     :    -0.000009
      f+2     :     0.000002
      f-2     :     0.000010
      f+3     :     0.000019
      f-3     :     0.000004

  7 C s       :    -0.000083  s :    -0.000083
      pz      :     0.000394  p :     0.002274
      px      :     0.000739
      py      :     0.001141
      dz2     :     0.000024  d :     0.000391
      dxz     :     0.000078
      dyz     :    -0.000005
      dx2y2   :     0.000293
      dxy     :     0.000001
      f0      :    -0.000001  f :     0.000018
      f+1     :     0.000003
      f-1     :     0.000002
      f+2     :     0.000006
      f-2     :    -0.000000
      f+3     :     0.000010
      f-3     :    -0.000002

  8 C s       :     0.000079  s :     0.000079
      pz      :     0.000045  p :     0.000535
      px      :     0.000175
      py      :     0.000315
      dz2     :     0.000001  d :     0.000090
      dxz     :     0.000018
      dyz     :    -0.000003
      dx2y2   :     0.000053
      dxy     :     0.000021
      f0      :    -0.000000  f :     0.000004
      f+1     :    -0.000000
      f-1     :     0.000001
      f+2     :     0.000000
      f-2     :    -0.000000
      f+3     :     0.000005
      f-3     :    -0.000000

  9 C s       :     0.000067  s :     0.000067
      pz      :     0.000060  p :     0.000190
      px      :     0.000074
      py      :     0.000056
      dz2     :     0.000000  d :     0.000026
      dxz     :     0.000000
      dyz     :     0.000001
      dx2y2   :     0.000013
      dxy     :     0.000011
      f0      :    -0.000000  f :     0.000002
      f+1     :    -0.000000
      f-1     :    -0.000000
      f+2     :     0.000000
      f-2     :     0.000001
      f+3     :     0.000001
      f-3     :    -0.000000

 10 F s       :    -0.000566  s :    -0.000566
      pz      :     0.000132  p :     0.010291
      px      :     0.000325
      py      :     0.009834
      dz2     :    -0.000003  d :    -0.000021
      dxz     :     0.000032
      dyz     :    -0.000020
      dx2y2   :    -0.000019
      dxy     :    -0.000011
      f0      :    -0.000000  f :     0.000006
      f+1     :     0.000000
      f-1     :     0.000002
      f+2     :     0.000000
      f-2     :     0.000001
      f+3     :     0.000001
      f-3     :     0.000001

 11 F s       :    -0.000829  s :    -0.000829
      pz      :     0.001676  p :     0.006871
      px      :     0.002643
      py      :     0.002552
      dz2     :     0.000015  d :    -0.000035
      dxz     :    -0.000015
      dyz     :    -0.000004
      dx2y2   :    -0.000009
      dxy     :    -0.000022
      f0      :     0.000001  f :     0.000004
      f+1     :     0.000000
      f-1     :     0.000001
      f+2     :     0.000001
      f-2     :     0.000000
      f+3     :     0.000000
      f-3     :     0.000000

 12 F s       :     0.002979  s :     0.002979
      pz      :     0.062505  p :     0.068310
      px      :     0.003392
      py      :     0.002412
      dz2     :     0.000507  d :     0.001640
      dxz     :     0.000002
      dyz     :     0.000856
      dx2y2   :     0.000190
      dxy     :     0.000085
      f0      :    -0.000004  f :     0.000035
      f+1     :    -0.000000
      f-1     :     0.000024
      f+2     :     0.000007
      f-2     :    -0.000001
      f+3     :     0.000004
      f-3     :     0.000006

 13 F s       :    -0.000040  s :    -0.000040
      pz      :     0.000837  p :     0.003968
      px      :    -0.000341
      py      :     0.003471
      dz2     :     0.000004  d :     0.000045
      dxz     :    -0.000004
      dyz     :     0.000009
      dx2y2   :     0.000017
      dxy     :     0.000020
      f0      :    -0.000000  f :     0.000000
      f+1     :     0.000001
      f-1     :    -0.000000
      f+2     :    -0.000000
      f-2     :    -0.000001
      f+3     :     0.000001
      f-3     :     0.000001

 14 F s       :    -0.000239  s :    -0.000239
      pz      :     0.009955  p :     0.026926
      px      :     0.010032
      py      :     0.006940
      dz2     :     0.000009  d :    -0.000003
      dxz     :    -0.000047
      dyz     :    -0.000019
      dx2y2   :     0.000044
      dxy     :     0.000010
      f0      :    -0.000000  f :     0.000006
      f+1     :     0.000002
      f-1     :     0.000001
      f+2     :     0.000001
      f-2     :     0.000001
      f+3     :     0.000000
      f-3     :     0.000001

 15 F s       :     0.000014  s :     0.000014
      pz      :     0.000008  p :     0.001607
      px      :     0.000841
      py      :     0.000758
[...]
----------------------------------------------------------------------------
  7:     21.70   0.000191    0.97  0.002753  (-0.027035 -0.037126 -0.025379)
  8:     31.06   0.000974    4.92  0.009789  (-0.088182 -0.034102 -0.029158)
  9:     38.39   0.000206    1.04  0.001672  (-0.030237 -0.027457 -0.001919)
 10:     42.10   0.000153    0.77  0.001135  ( 0.031600  0.003534 -0.011146)
 11:     53.57   0.000046    0.23  0.000269  (-0.015985 -0.003319  0.001432)
 12:     61.49   0.000233    1.18  0.001180  ( 0.002888  0.032574  0.010536)
 13:     78.27   0.000215    1.09  0.000857  (-0.020851  0.018998  0.007816)
 14:     96.06   0.000866    4.37  0.002812  (-0.050086 -0.015012  0.008835)
 15:    128.33   0.000081    0.41  0.000198  ( 0.013909  0.001402 -0.001603)
 16:    150.97   0.000234    1.18  0.000484  (-0.013662  0.010630  0.013573)
 17:    180.28   0.001817    9.18  0.003145  (-0.028680  0.005243  0.047902)
 18:    190.59   0.000299    1.51  0.000490  ( 0.020128  0.003308 -0.008573)
 19:    202.32   0.001658    8.38  0.002558  (-0.010077 -0.025345  0.042587)
 20:    219.01   0.000342    1.73  0.000487  ( 0.018101 -0.001594 -0.012513)
 21:    231.18   0.000049    0.25  0.000066  (-0.003625  0.006248  0.003724)
 22:    247.46   0.000092    0.47  0.000117  ( 0.007786  0.000047 -0.007482)
 23:    252.67   0.000163    0.82  0.000201  ( 0.013034  0.005190 -0.002084)
 24:    255.23   0.000273    1.38  0.000334  (-0.014307 -0.005927 -0.009698)
 25:    284.86   0.001868    9.44  0.002047  (-0.044455  0.008404  0.000242)
 26:    288.83   0.000149    0.75  0.000161  ( 0.007887  0.008691 -0.004779)
 27:    306.62   0.000122    0.62  0.000124  ( 0.006439 -0.004861  0.007674)
 28:    322.49   0.000470    2.38  0.000455  ( 0.021078 -0.001268 -0.003068)
 29:    338.49   0.000079    0.40  0.000072  (-0.003113  0.003861  0.006918)
 30:    352.25   0.000723    3.65  0.000640  ( 0.017100  0.006191  0.017588)
 31:    356.63   0.000060    0.30  0.000052  ( 0.000449 -0.002857  0.006624)
 32:    363.02   0.000050    0.25  0.000043  ( 0.004777 -0.003109  0.003259)
 33:    375.05   0.000085    0.43  0.000070  (-0.008364 -0.000315  0.000581)
 34:    399.13   0.000140    0.71  0.000109  (-0.001862  0.005171 -0.008883)
 35:    430.28   0.000548    2.77  0.000398  ( 0.008084 -0.017271 -0.005844)
 36:    457.71   0.001878    9.49  0.001280  ( 0.031156 -0.002538  0.017411)
 37:    476.59   0.004152   20.98  0.002719  ( 0.051157 -0.006281  0.007890)
 38:    520.33   0.000822    4.15  0.000493  (-0.019832 -0.000664  0.009956)
 39:    526.84   0.003910   19.76  0.002316  (-0.037347  0.030250  0.002483)
 40:    561.29   0.002878   14.54  0.001600  (-0.023658 -0.031537 -0.006761)
 41:    568.61   0.008479   42.85  0.004653  ( 0.062694  0.026316  0.005502)
 42:    592.38   0.000996    5.03  0.000525  ( 0.015056 -0.006623 -0.015938)
 43:    598.60   0.005222   26.39  0.002722  (-0.050320  0.009043 -0.010403)
 44:    620.21   0.001829    9.24  0.000920  (-0.024127  0.000670 -0.018375)
 45:    651.55   0.025947  131.12  0.012427  ( 0.110750  0.007744  0.010088)
 46:    688.89   0.031504  159.21  0.014271  (-0.119444 -0.000090  0.002112)
 47:    710.20   0.000809    4.09  0.000356  ( 0.006632 -0.001480 -0.017588)
 48:    739.41   0.008063   40.75  0.003403  ( 0.002397 -0.014329  0.056497)
 49:    765.42   0.002731   13.80  0.001114  ( 0.014180 -0.019980  0.022657)
 50:    784.59   0.030138  152.31  0.011987  (-0.018770  0.010911 -0.107312)
 51:    861.91   0.002542   12.85  0.000920  ( 0.029052 -0.008626 -0.001359)
 52:    951.02   0.002779   14.04  0.000912  ( 0.019634  0.008585 -0.021275)
 53:   1000.69   0.067162  339.41  0.020944  ( 0.096822  0.049583 -0.095453)
 54:   1051.33   0.035732  180.58  0.010606  (-0.032063 -0.083228 -0.051491)
 55:   1069.49   0.046002  232.48  0.013423  ( 0.060263 -0.065153  0.074473)
 56:   1098.06   0.004439   22.43  0.001261  ( 0.014363 -0.014789  0.028920)
 57:   1122.29   0.026385  133.34  0.007337  ( 0.023609  0.065005  0.050534)
 58:   1134.17   0.122541  619.27  0.033717  (-0.011122  0.170149  0.068135)
 59:   1143.03   0.035726  180.55  0.009754  (-0.016033 -0.028379  0.093227)
 60:   1149.06   0.067936  343.32  0.018450  (-0.017964 -0.099614  0.090579)
 61:   1155.37   0.064942  328.19  0.017541  ( 0.040865 -0.111962 -0.057750)
 62:   1163.99   0.083418  421.56  0.022364  (-0.052303 -0.022562  0.138273)
 63:   1184.67   0.071648  362.08  0.018873  ( 0.031416  0.059993 -0.119530)
 64:   1198.95   0.006704   33.88  0.001745  (-0.034416  0.017096  0.016377)
 65:   1223.66   0.020833  105.28  0.005313  (-0.055841  0.041652  0.021445)
 66:   1271.03   0.009567   48.35  0.002349  ( 0.014705 -0.028755 -0.036135)
 67:   1294.69   0.069481  351.13  0.016747  (-0.020729 -0.006364 -0.127581)
 68:   1330.29   0.009611   48.57  0.002255  ( 0.045204  0.009388 -0.011089)
 69:   1342.16   0.037289  188.44  0.008670  ( 0.080822  0.022796 -0.040227)
 70:   1382.93   0.007113   35.94  0.001605  (-0.011800 -0.030824  0.022707)
 71:   1726.71   0.155657  786.63  0.028131  ( 0.030066 -0.160601 -0.037878)

* The epsilon (eps) is given for a Dirac delta lineshape.
** The dipole moment derivative (T) already includes vibrational overlap.

The first frequency considered to be a vibration is 7
The total number of vibrations considered is 65


--------------------------
THERMOCHEMISTRY AT 298.15K
--------------------------

Temperature         ...   298.15 K
Pressure            ...     1.00 atm
Total Mass          ...   394.06 AMU
Quasi RRHO          ...     True
Cut-Off Frequency   ...     1.00 cm^-1

Throughout the following assumptions are being made:
  (1) The electronic state is orbitally nondegenerate
      but the spin degeneracy is treated
  (2) There are no thermally accessible electronically excited states
  (3) Hindered rotations indicated by low frequency modes are not
      treated as such but are treated as vibrations and this may
      cause some error
  (4) All equations used are the standard statistical mechanics
      equations for an ideal gas
  (5) All vibrations are strictly harmonic

freq.      21.70  E(vib)   ...       0.56 
freq.      31.06  E(vib)   ...       0.55 
freq.      38.39  E(vib)   ...       0.54 
freq.      42.10  E(vib)   ...       0.53 
freq.      53.57  E(vib)   ...       0.52 
freq.      61.49  E(vib)   ...       0.51 
freq.      78.27  E(vib)   ...       0.49 
freq.      96.06  E(vib)   ...       0.47 
freq.     128.33  E(vib)   ...       0.43 
freq.     150.97  E(vib)   ...       0.40 
freq.     180.28  E(vib)   ...       0.37 
freq.     190.59  E(vib)   ...       0.36 
freq.     202.32  E(vib)   ...       0.35 
freq.     219.01  E(vib)   ...       0.33 
freq.     231.18  E(vib)   ...       0.32 
freq.     247.46  E(vib)   ...       0.31 
freq.     252.67  E(vib)   ...       0.30 
freq.     255.23  E(vib)   ...       0.30 
freq.     284.86  E(vib)   ...       0.28 
freq.     288.83  E(vib)   ...       0.27 
freq.     306.62  E(vib)   ...       0.26 
freq.     322.49  E(vib)   ...       0.25 
freq.     338.49  E(vib)   ...       0.23 
freq.     352.25  E(vib)   ...       0.23 
freq.     356.63  E(vib)   ...       0.22 
freq.     363.02  E(vib)   ...       0.22 
freq.     375.05  E(vib)   ...       0.21 
freq.     399.13  E(vib)   ...       0.19 
freq.     430.28  E(vib)   ...       0.18 
freq.     457.71  E(vib)   ...       0.16 
freq.     476.59  E(vib)   ...       0.15 
freq.     520.33  E(vib)   ...       0.13 
freq.     526.84  E(vib)   ...       0.13 
freq.     561.29  E(vib)   ...       0.11 
freq.     568.61  E(vib)   ...       0.11 
freq.     592.38  E(vib)   ...       0.10 
freq.     598.60  E(vib)   ...       0.10 
freq.     620.21  E(vib)   ...       0.09 
freq.     651.55  E(vib)   ...       0.08 
freq.     688.89  E(vib)   ...       0.07 
freq.     710.20  E(vib)   ...       0.07 
freq.     739.41  E(vib)   ...       0.06 
freq.     765.42  E(vib)   ...       0.06 
freq.     784.59  E(vib)   ...       0.05 
freq.     861.91  E(vib)   ...       0.04 
freq.     951.02  E(vib)   ...       0.03 
freq.    1000.69  E(vib)   ...       0.02 
freq.    1051.33  E(vib)   ...       0.02 
freq.    1069.49  E(vib)   ...       0.02 
freq.    1098.06  E(vib)   ...       0.02 
freq.    1122.29  E(vib)   ...       0.01 
freq.    1134.17  E(vib)   ...       0.01 
freq.    1143.03  E(vib)   ...       0.01 
freq.    1149.06  E(vib)   ...       0.01 
freq.    1155.37  E(vib)   ...       0.01 
freq.    1163.99  E(vib)   ...       0.01 
freq.    1184.67  E(vib)   ...       0.01 
freq.    1198.95  E(vib)   ...       0.01 
freq.    1223.66  E(vib)   ...       0.01 
freq.    1271.03  E(vib)   ...       0.01 
freq.    1294.69  E(vib)   ...       0.01 
freq.    1330.29  E(vib)   ...       0.01 
freq.    1342.16  E(vib)   ...       0.01 
freq.    1382.93  E(vib)   ...       0.01 
freq.    1726.71  E(vib)   ...       0.00 

------------
INNER ENERGY
------------

The inner energy is: U= E(el) + E(ZPE) + E(vib) + E(rot) + E(trans)
    E(el)   - is the total energy from the electronic structure calculation
              = E(kin-el) + E(nuc-el) + E(el-el) + E(nuc-nuc)
    E(ZPE)  - the the zero temperature vibrational energy from the frequency calculation
    E(vib)  - the the finite temperature correction to E(ZPE) due to population
              of excited vibrational states
    E(rot)  - is the rotational thermal energy
    E(trans)- is the translational thermal energy

Summary of contributions to the inner energy U:
Electronic energy                ...  -1853.28257074 Eh
Zero point energy                ...      0.09207543 Eh      57.78 kcal/mol
Thermal vibrational correction   ...      0.01905748 Eh      11.96 kcal/mol
Thermal rotational correction    ...      0.00141627 Eh       0.89 kcal/mol
Thermal translational correction ...      0.00141627 Eh       0.89 kcal/mol
-----------------------------------------------------------------------
Total thermal energy                  -1853.16860528 Eh


Summary of corrections to the electronic energy:
(perhaps to be used in another calculation)
Total thermal correction                  0.02189003 Eh      13.74 kcal/mol
Non-thermal (ZPE) correction              0.09207543 Eh      57.78 kcal/mol
-----------------------------------------------------------------------
Total correction                          0.11396546 Eh      71.51 kcal/mol


--------
ENTHALPY
--------

The enthalpy is H = U + kB*T
                kB is Boltzmann's constant
Total thermal energy              ...  -1853.16860528 Eh 
Thermal Enthalpy correction       ...      0.00094421 Eh       0.59 kcal/mol
-----------------------------------------------------------------------
Total Enthalpy                    ...  -1853.16766107 Eh


Note: Only C1 symmetry has been detected, increase convergence thresholds 
      if your molecule has a higher symmetry. Symmetry factor of 1.0 is   
      used for the rotational entropy correction. 
 

Note: Rotational entropy computed according to Herzberg 
Infrared and Raman Spectra, Chapter V,1, Van Nostrand Reinhold, 1945 
Point Group:  C1, Symmetry Number:   1  
Rotational constants in cm-1:     0.018521     0.004358     0.004267 

Vibrational entropy computed according to the QRRHO of S. Grimme
Chem.Eur.J. 2012 18 9955 using a reference frequency of 100.0 cm-1


-------
ENTROPY
-------

The entropy contributions are T*S = T*(S(el)+S(vib)+S(rot)+S(trans))
     S(el)   - electronic entropy
     S(vib)  - vibrational entropy
     S(rot)  - rotational entropy
     S(trans)- translational entropy
The entropies will be listed as multiplied by the temperature to get
units of energy

Electronic entropy                ...      0.00065446 Eh      0.41 kcal/mol
Vibrational entropy               ...      0.03413684 Eh     21.42 kcal/mol
Rotational entropy                ...      0.01653620 Eh     10.38 kcal/mol
Translational entropy             ...      0.02081341 Eh     13.06 kcal/mol
-----------------------------------------------------------------------
Final entropy term                ...      0.07214091 Eh     45.27 kcal/mol

In case the symmetry of your molecule has not been determined correctly
or in case you have a reason to use a different symmetry number we print 
out the resulting rotational entropy values for sn=1,12:

 non-linear molecules -----------------------------------
|  sn= 1 | S(rot)=       0.01653620 Eh     10.38 kcal/mol|
|  sn= 2 | S(rot)=       0.01588174 Eh      9.97 kcal/mol|
|  sn= 3 | S(rot)=       0.01549891 Eh      9.73 kcal/mol|
|  sn= 4 | S(rot)=       0.01522728 Eh      9.56 kcal/mol|
|  sn= 5 | S(rot)=       0.01501659 Eh      9.42 kcal/mol|
|  sn= 6 | S(rot)=       0.01484445 Eh      9.32 kcal/mol|
|  sn= 7 | S(rot)=       0.01469890 Eh      9.22 kcal/mol|
|  sn= 8 | S(rot)=       0.01457283 Eh      9.14 kcal/mol|
|  sn= 9 | S(rot)=       0.01446162 Eh      9.07 kcal/mol|
|  sn=10 | S(rot)=       0.01436214 Eh      9.01 kcal/mol|
|  sn=11 | S(rot)=       0.01427215 Eh      8.96 kcal/mol|
|  sn=12 | S(rot)=       0.01418999 Eh      8.90 kcal/mol|
 linear molecules ---------------------------------------
|  Dinfh | S(rot)=       0.01047810 Eh      6.58 kcal/mol|
|  Cinfv | S(rot)=       0.01113256 Eh      6.99 kcal/mol|
 --------------------------------------------------------


-------------------
GIBBS FREE ENERGY
-------------------

The Gibbs free energy is G = H - T*S

Total enthalpy                    ...  -1853.16766107 Eh 
Total entropy correction          ...     -0.07214091 Eh    -45.27 kcal/mol
-----------------------------------------------------------------------
Final Gibbs free energy         ...  -1853.23980198 Eh

For completeness - the Gibbs free energy minus the electronic energy
G-E(el)                           ...      0.04276876 Eh     26.84 kcal/mol


Maximum memory used throughout the entire PROP-calculation: 523.4 MB

--------------------------------
SUGGESTED CITATIONS FOR THIS RUN
--------------------------------

Below you find a list of papers that are relevant to this ORCA run
We neither can nor want to force you to cite these papers, but we appreciate if you do
You receive ORCA, which is the product of decades of hard work by many enthusiastic individuals, for free
The only thing we kindly ask in return is that you cite our papers,
We deeply appreciate it, if you show your appreciation for ORCA by not just citing the generic ORCA reference.

Please note that relegating all ORCA citations to the supporting information does *not* help us.
SI sections are not indexed - citations you put there will not count into any citation statistics
But we need these citations in order to attract the funding resources that allow us to do what we are doing

Therefore, if you are a happy ORCA user, please consider citing a few of the papers listed below in the main body of your paper

In addition to the list printed below, the program has created the file rf_mecn_freq_B3L_C3_D_B.bibtex that contains the list in bibtex format
You can import this file easily into all common literature databanks and citation aid programs


List of essential papers. We consider these as the minimum necessary citations

  1. Neese,F.
     Software update: the ORCA program system, version 5.0
     WIRES Comput. Molec. Sci., 2022 12(1)e1606
     doi.org/10.1002/wcms.1606

List of papers to cite with high priority. The work reported in these papers was absolutely
necessary for this run to complete.
Our perspective: the developers of density functionals and basis sets usually get cited in chemistry papers
Good! But without the algorithms to do something with them, the functionals or basis sets would not do anything.
Hence, in our opinion, the algorithm design and method developments papers are equally worthy of getting cited

  1. Neese,F.
     An improvement of the resolution of the identity approximation for the formation of the Coulomb matrix
     J. Comp. Chem., 2003 24(14)1740-1747
     doi.org/10.1002/jcc.10318
  2. Neese,F.; Wennmohs,F.; Hansen,A.; Becker,U.
     Efficient, approximate and parallel Hartree-Fock and hybrid DFT calculations. A 'chain-of-spheres' algorithm for the Hartree-Fock exchange
     Chem. Phys., 2009 356(1-3)98-109
     doi.org/10.1016/j.chemphys.2008.10.036
  3. Bykov,D.; Petrenko,T.; Izsak,R.; Kossmann,S.; Becker,U.; Valeev,E.; Neese,F.
     Efficient implementation of the analytic second derivatives of Hartree-Fock and hybrid DFT energies: a detailed analysis of different approximations
     Molec. Phys., 2015 113 1961-1977
     doi.org/10.1080/00268976.2015.1025114
  4. Garcia-Rates,M.; Neese,F.
     Efficient implementation of the analytical second derivatives of hartree-fock and hybrid DFT energies within the framework of the conductor-like polarizable continuum model
     J. Comput. Chem., 2019 40 1816-1828
     doi.org/10.1002/jcc.25833
  5. Garcia-Rates,M.; Neese,F.
     Effect of the Solute Cavity on the Solvation Energy and its Derivatives within the Framework of the Gaussian Charge Scheme
     J. Comput. Chem., 2020 41 922-939
     doi.org/10.1002/jcc.26139
  6. Helmich-Paris,B.; de Souza,B.; Neese,F.; Izsák,R.
     An improved chain of spheres for exchange algorithm
     J. Chem. Phys., 2021 155 104109
     doi.org/doi: 10.1063/5.0058766.
  7. Neese,F.
     The SHARK Integral Generation and Digestion System
     J. Comp. Chem., 2022  1-16
     doi.org/10.1002/jcc.26942
  8. Grimme,S.; Antony,J.; Ehrlich,S.; Krieg,H.
     A consistent and accurate ab initio parametrization of density functional dispersion correction (DFT-D) for the 94 elements H-Pu
     J. Chem. Phys., 2010 132 154104
     doi.org/10.1063/1.3382344
  9. Grimme,S.; Ehrlich,S.; Goerigk,L.
     Effect of the damping function in dispersion corrected density functional theory
     J. Comput. Chem., 2011 32(7)1456-1465
     doi.org/10.1002/jcc.21759

List of suggested additional citations. These are papers that are important in the 'surrounding' of 
of this run, or papers that preceded the highly important papers. If you like your results we are grateful for a citation.

  1. Izsak,R.; Neese,F.
     An overlap fitted chain of spheres exchange method
     J. Chem. Phys., 2011 135 144105
     doi.org/10.1063/1.3646921
  2. Izsak,R.; Hansen,A.; Neese,F.
     The resolution of identity and chain of spheres approximations for the LPNO-CCSD singles Fock term
     Molec. Phys., 2012 110 2413-2417
     doi.org/10.1080/00268976.2012.687466
  3. Neese,F.
     The ORCA program system
     WIRES Comput. Molec. Sci., 2012 2(1)73-78
     doi.org/10.1002/wcms.81
  4. Izsak,R.; Neese,F.; Klopper,W.
     Robust fitting techniques in the chain of spheres approximation to the Fock exchange: The role of the complementary space
     J. Chem. Phys., 2013 139 
     doi.org/10.1063/1.4819264
  5. Neese,F.
     Software update: the ORCA program system, version 4.0
     WIRES Comput. Molec. Sci., 2018 8(1)1-6
     doi.org/10.1002/wcms.1327
  6. Neese,F.; Wennmohs,F.; Becker,U.; Riplinger,C.
     The ORCA quantum chemistry program package
     J. Chem. Phys., 2020 152 Art. No. L224108
     doi.org/10.1063/5.0004608

List of optional additional citations

  1. Neese,F.
     Approximate second-order SCF convergence for spin unrestricted wavefunctions
     Chem. Phys. Lett., 2000 325(1-3)93-98
     doi.org/10.1016/s0009-2614(00)00662-x

Timings for individual modules:

Sum of individual times          ...     1128.195 sec (=  18.803 min)
Startup calculation              ...        4.011 sec (=   0.067 min)   0.4 %
SCF iterations                   ...      106.469 sec (=   1.774 min)   9.4 %
Property integrals               ...      245.194 sec (=   4.087 min)  21.7 %
SCF Response                     ...      512.202 sec (=   8.537 min)  45.4 %
Property calculations            ...      260.320 sec (=   4.339 min)  23.1 %
                             ****ORCA TERMINATED NORMALLY****
TOTAL RUN TIME: 0 days 0 hours 18 minutes 48 seconds 943 msec
