
                                 *****************
                                 * O   R   C   A *
                                 *****************

                                            #,                                       
                                            ###                                      
                                            ####                                     
                                            #####                                    
                                            ######                                   
                                           ########,                                 
                                     ,,################,,,,,                         
                               ,,#################################,,                 
                          ,,##########################################,,             
                       ,#########################################, ''#####,          
                    ,#############################################,,   '####,        
                  ,##################################################,,,,####,       
                ,###########''''           ''''###############################       
              ,#####''   ,,,,##########,,,,          '''####'''          '####       
            ,##' ,,,,###########################,,,                        '##       
           ' ,,###''''                  '''############,,,                           
         ,,##''                                '''############,,,,        ,,,,,,###''
      ,#''                                            '''#######################'''  
     '                                                          ''''####''''         
             ,#######,   #######,   ,#######,      ##                                
            ,#'     '#,  ##    ##  ,#'     '#,    #''#        ,####,   ,####,        
            ##       ##  ##   ,#'  ##            #'  '#       #'       #'  '#        
            ##       ##  #######   ##           ,######,      #####,   #    #        
            '#,     ,#'  ##    ##  '#,     ,#' ,#      #,     #,   #   #,  ,#        
             '#######'   ##     ##  '#######'  #'      '#     '####' # '####'        



                #########################################################
                #                        -***-                          #
                #          Department of theory and spectroscopy        #
                #                                                       #
                #                      Frank Neese                      #
                #                                                       #
                #     Directorship, Architecture, Infrastructure        #
                #                    SHARK, DRIVERS                     #
                #        Core code/Algorithms in most modules           #
                #                                                       #
                #        Max Planck Institute fuer Kohlenforschung      #
                #                Kaiser Wilhelm Platz 1                 #
                #                 D-45470 Muelheim/Ruhr                 #
                #                      Germany                          #
                #                                                       #
                #                  All rights reserved                  #
                #                        -***-                          #
                #########################################################


                         Program Version 6.0.1  -  RELEASE   -


 With contributions from (in alphabetic order):
[Max-Planck-Institut fuer Kohlenforschung]                               
  Daniel Aravena         : Magnetic Suceptibility                        
  Michael Atanasov       : Ab Initio Ligand Field Theory (pilot matlab implementation)
  Alexander A. Auer      : GIAO ZORA, VPT2 properties, NMR spectrum      
  Ute Becker             : All parallelization in ORCA, NUMFREQ, NUMCALC 
  Giovanni Bistoni       : ED, misc. LED, open-shell LED, HFLD           
  Martin Brehm           : Molecular dynamics                            
  Dmytro Bykov           : pre 5.0 version of the SCF Hessian            
  Marcos Casanova-Páez   : Triplet and SCS-CIS(D). UHF-(DLPNO)-IP/EA/STEOM-CCSD. UHF-CVS-IP/STEOM-CCSD   
  Vijay G. Chilkuri      : MRCI spin determinant printing, contributions to CSF-ICE 
  Pauline Colinet        : FMM embedding                                 
  Dipayan Datta          : RHF DLPNO-CCSD density                        
  Achintya Kumar Dutta   : EOM-CC, STEOM-CC                              
  Nicolas Foglia         : Exact transition moments, OPA infrastructure, MCD improvements    
  Dmitry Ganyushin       : Spin-Orbit,Spin-Spin,Magnetic field MRCI      
  Miquel Garcia-Rates    : C-PCM and meta-GGA Hessian, CCSD/C-PCM, Gaussian charge scheme 
  Tiago L. C. Gouveia    : GS-ROHF, GS-ROCIS                             
  Yang Guo               : DLPNO-NEVPT2, F12-NEVPT2, CIM, IAO-localization        
  Andreas Hansen         : Spin unrestricted coupled pair/coupled cluster methods 
  Ingolf Harden          : AUTO-CI MPn and infrastructure                
  Benjamin Helmich-Paris : MC-RPA, TRAH-(SCF,CASSCF), AVAS, COSX integrals, SCF dyn. polar. 
  Lee Huntington         : MR-EOM, pCC                                   
  Robert Izsak           : Overlap fitted RIJCOSX, COSX-SCS-MP3, EOM     
  Riya Kayal             : Wick's Theorem for AUTO-CI, AUTO-CI UHF-CCSDT 
  Emily Kempfer          : AUTO-CI, RHF CISDT and CCSDT                  
  Christian Kollmar      : KDIIS, OOCD, Brueckner-CCSD(T), CCSD density, CASPT2, CASPT2-K, improved NEVPT2 
  Axel Koslowski         : Symmetry handling                             
  Simone Kossmann        : meta-GGA functionals, TD-DFT gradient, OOMP2, (MP2 Hessian; deprecated post 5.0) 
  Lucas Lang             : DCDCAS                                        
  Marvin Lechner         : AUTO-CI (C++ implementation), FIC-MRCC        
  Spencer Leger          : CASSCF response                               
  Dagmar Lenk            : GEPOL surface, SMD, ORCA-2-JSON               
  Dimitrios Liakos       : Extrapolation schemes; Compound Job, initial MDCI parallelization 
  Dimitrios Manganas     : Further ROCIS development; embedding schemes. LFT, Crystal Embedding 
  Dimitrios Pantazis     : SARC Basis sets                               
  Anastasios Papadopoulos: AUTO-CI, single reference methods and gradients 
  Taras Petrenko         : pre 6.0 DFT Hessian and TD-DFT gradient, (ASA, deprecated), ECA, 1-Electron XAS/XES, NRVS 
  Peter Pinski           : DLPNO-MP2, DLPNO-MP2 Gradient                 
  Christoph Reimann      : Effective Core Potentials                     
  Marius Retegan         : Local ZFS, SOC                                
  Christoph Riplinger    : Optimizer, TS searches, QM/MM, DLPNO-CCSD(T), (RO)-DLPNO pert. Triples 
  Michael Roemelt        : Original ROCIS implementation                 
  Masaaki Saitow         : Open-shell DLPNO-CCSD energy and density      
  Barbara Sandhoefer     : DKH picture change effects                    
  Kantharuban Sivalingam : CASSCF convergence/infrastructure, NEVPT2 and variants, FIC-MRCI 
  Bernardo de Souza      : ESD, SOC TD-DFT                               
  Georgi L. Stoychev     : AutoAux, RI-MP2 NMR, DLPNO-MP2 response, X2C  
  Van Anh Tran           : RI-MP2 g-tensors                              
  Willem Van den Heuvel  : Paramagnetic NMR                              
  Zikuan Wang            : NOTCH, Electric field optimization            
  Frank Wennmohs         : Technical directorship and infrastructure     
  Hang Xu                : AUTO-CI-Response properties                   
                                                                         
[FACCTs GmbH]                                                            
  Markus Bursch, Miquel Garcia-Rates, Christoph Riplinger, Bernardo de Souza, Georgi L. Stoychev 
                                                                 
  APM, Basis sets (HGBS, AHGBS, def-TZVP (Ac-Lr), def2-XVPD (La-Lu)), CI-OPT, improved COSX, DLPNO-Multilevel,           
  DOCKER, DRACO, updates on ESD, GOAT, IRC, LR-CPCM, MBIS, meta-GGA TD-DFT gradient, ML-optimized integration grids, 
  MM, NACMEs, nearIR, NEB, NEB-TS, NL-DFT gradient (VV10), 2- and 3-layer-ONIOM, interface openCOSMO-RS, QMMM,   
  Crystal-QMMM, SF, symmetry and pop. for TD-DFT, r2SCAN hybrids, SOLVATOR                                   
                                                                         
[Other institutions]                                                     
  V. Asgeirsson          : NEB                                           
  Christoph Bannwarth    : sTDA-DFT, sTD-DFT, PBEh-3c, B97-3c, D3        
  Sebastian Ehlert       : rSCAN, r2SCAN, r2SCAN-3c, D4, dhf basis sets  
  Marvin Friede          : D4 for Fr, Ra, Ac-Lr                          
  Lars Goerigk           : TD-DFT with DH, B97 family of functionals     
  Stefan Grimme          : VdW corrections, initial TS optimization, DFT functionals, gCP, sTDA/sTD-DF 
  Waldemar Hujo          : DFT-NL                                        
  H. Jonsson             : NEB                                           
  Holger Kruse           : gCP                                           
  Marcel Mueller         : wB97X-3c, vDZP basis set                      
  Hagen Neugebauer       : wr2SCAN                                       
  Tobias Risthaus        : range-separated hybrid DFT                    
  Lukas Wittmann         : regularized MP2, r2SCAN double-hybrids, wr2SCAN        
                                                                         
We gratefully acknowledge several colleagues who have allowed us to      
interface, adapt or use parts of their codes:                            
  Ed Valeev, F. Pavosevic, A. Kumar             : LibInt (2-el integral package), F12 methods 
  Garnet Chan, S. Sharma, J. Yang, R. Olivares  : DMRG                   
  Ulf Ekstrom                                   : XCFun DFT Library      
  Mihaly Kallay                                 : mrcc  (arbitrary order and MRCC methods)
  Frank Weinhold                                : gennbo (NPA and NBO analysis)           
  Simon Mueller                                 : openCOSMO-RS                            
  Christopher J. Cramer and Donald G. Truhlar   : smd solvation model                     
  S Lehtola, MJT Oliveira, MAL Marques          : LibXC Library                           
  Liviu Ungur et al                             : ANISO software                          


 Your calculation uses the libint2 library for the computation of 2-el integrals
 For citations please refer to: http://libint.valeyev.net

 Your ORCA version has been built with support for libXC version: 6.2.2
 For citations please refer to: https://libxc.gitlab.io

 This ORCA versions uses:
   CBLAS   interface :  Fast vector & matrix operations
   LAPACKE interface :  Fast linear algebra routines
   SCALAPACK package :  Parallel linear algebra routines
   Shared memory     :  Shared parallel matrices
   BLAS/LAPACK       :  OpenBLAS 0.3.27  USE64BITINT DYNAMIC_ARCH NO_AFFINITY SkylakeX SINGLE_THREADED
        Core in use  :  SkylakeX
   Copyright (c) 2011-2014, The OpenBLAS Project


NOTE: MaxCore=8000 MB was set to SCF,MP2,MDCI,CIPSI,MRCI and CIS
      => If you want to overwrite this, your respective input block should be placed after the MaxCore statement
Your calculation utilizes the atom-pairwise dispersion correction
with the Becke-Johnson damping scheme (D3BJ)


Your calculation utilizes the SMD solvation module
Please cite in your paper:
A.V. Marenich, C.J. Cramer, D.G. Truhlar J. Phys. Chem. B, 113, (2009), 6378 

Warning: RI is on but no J-basis has been assigned. Assigning Def2/J (nothing to worry about!)
================================================================================

----- Orbital basis set information -----
Your calculation utilizes the basis: def2-TZVP
   F. Weigend and R. Ahlrichs, Phys. Chem. Chem. Phys. 7, 3297 (2005).

----- AuxJ basis set information -----
Your calculation utilizes the auxiliary basis: def2/J
   F. Weigend, Phys. Chem. Chem. Phys. 8, 1057 (2006).

================================================================================
                                        WARNINGS
                       Please study these warnings very carefully!
================================================================================


WARNING: your system is open-shell and RHF/RKS was chosen
  ===> : WILL SWITCH to UHF/UKS


WARNING: Geometry Optimization
  ===> : Switching off AutoStart
         For restart on a previous wavefunction, please use MOREAD

================================================================================
                                       INPUT FILE
================================================================================
NAME = rf_mecn_opt_B3L_D_A.inp
|  1> !B3LYP def2-TZVP opt d3 TightSCF SlowConv defgrid2
|  2>  
|  3> %pal
|  4> nprocs 20
|  5> end
|  6>  
|  7> %scf
|  8> MaxIter 1500
|  9> end
| 10>  
| 11> %maxcore 8000
| 12>  
| 13> !CPCM
| 14> %cpcm smd true
| 15> SMDsolvent "ACETONITRILE"
| 16> end
| 17>  
| 18> * xyz -2 2
| 19> 6        4.790427000     -0.033865800     -0.529943200
| 20> 8        5.449345000     -1.206924000     -0.894594600
| 21> 8        4.978223000      1.323071000     -0.737377200
| 22> 6        3.506687600     -0.338741600      0.376153800
| 23> 6        2.222300000      0.400524800     -0.110681600
| 24> 6        0.900506800     -0.386389800      0.175703000
| 25> 6       -0.395261200      0.487294000      0.065549000
| 26> 6       -1.705693600     -0.364773800     -0.068373600
| 27> 6       -3.005136200      0.445344800      0.258164000
| 28> 6       -4.319880200     -0.214526000     -0.270540800
| 29> 9        3.211587400     -1.692050400      0.412735200
| 30> 9        3.741061800      0.055285800      1.689948800
| 31> 9        2.125696800      1.616867800      0.483236600
| 32> 9        2.314152400      0.589704000     -1.455769200
| 33> 9        0.794028800     -1.413561400     -0.700839000
| 34> 9        0.958350600     -0.884509000      1.435093400
| 35> 9       -0.498373400      1.260265600      1.173340200
| 36> 9       -0.299075000      1.289512600     -1.020910800
| 37> 9       -1.641790400     -1.418189000      0.779523800
| 38> 9       -1.792381400     -0.831391600     -1.336863600
| 39> 9       -2.918792200      1.679227200     -0.295171200
| 40> 9       -3.119771000      0.573779800      1.598579800
| 41> 9       -4.383115600     -1.504377600      0.089127600
| 42> 9       -5.365669800      0.430528600      0.260394200
| 43> 9       -4.396020400     -0.128550600     -1.602941800
| 44> *
| 45> 
| 46>                          ****END OF INPUT****
================================================================================

                       *****************************
                       * Geometry Optimization Run *
                       *****************************

Geometry optimization settings:
Update method            Update   .... BFGS
Choice of coordinates    CoordSys .... (2022) Redundant Internals
Initial Hessian          InHess   .... Almloef's Model
Max. no of cycles        MaxIter  .... 75

Convergence Tolerances:
Energy Change            TolE     ....  5.0000e-06 Eh
Max. Gradient            TolMAXG  ....  3.0000e-04 Eh/bohr
RMS Gradient             TolRMSG  ....  1.0000e-04 Eh/bohr
Max. Displacement        TolMAXD  ....  4.0000e-03 bohr
RMS Displacement         TolRMSD  ....  2.0000e-03 bohr
Strict Convergence                .... False

------------------------------------------------------------------------------
                        ORCA OPTIMIZATION COORDINATE SETUP
------------------------------------------------------------------------------

The optimization will be done in redundant internal coordinates (2022)
Making redundant internal coordinates   ...  (2022 redundants) done
Evaluating the initial hessian          ...  (Almloef) done
Evaluating the coordinates              ...  done
Calculating the B-matrix                .... done
Calculating the G-matrix                .... done
Diagonalizing the G-matrix              .... done
Small eigenvalue found = 5.470e-03
Small eigenvalue found = 1.492e-02
Small eigenvalue found = 2.979e-02
The first mode is                       ....   41
The number of degrees of freedom        ....   69

    -----------------------------------------------------------------
                    Redundant Internal Coordinates


    -----------------------------------------------------------------
         Definition                    Initial Value    Approx d2E/dq
    -----------------------------------------------------------------
      1. B(O   1,C   0)                  1.3940         0.551454   
      2. B(O   2,C   0)                  1.3855         0.568952   
      3. B(C   3,C   0)                  1.6006         0.288221   
      4. B(C   4,C   3)                  1.5599         0.334759   
      5. B(C   5,C   4)                  1.5647         0.328824   
      6. B(C   6,C   5)                  1.5667         0.326486   
      7. B(C   7,C   6)                  1.5688         0.323927   
      8. B(C   8,C   7)                  1.5657         0.327637   
      9. B(C   9,C   8)                  1.5632         0.330714   
     10. B(F  10,C   3)                  1.3856         0.528443   
     11. B(F  11,C   3)                  1.3915         0.517117   
     12. B(F  12,C   4)                  1.3570         0.586881   
     13. B(F  13,C   4)                  1.3614         0.577499   
     14. B(F  14,C   5)                  1.3545         0.592326   
     15. B(F  15,C   5)                  1.3556         0.590092   
     16. B(F  16,C   6)                  1.3547         0.591865   
     17. B(F  17,C   6)                  1.3540         0.593567   
     18. B(F  18,C   7)                  1.3538         0.593973   
     19. B(F  19,C   7)                  1.3544         0.592672   
     20. B(F  20,C   8)                  1.3550         0.591238   
     21. B(F  21,C   8)                  1.3514         0.599114   
     22. B(F  22,C   9)                  1.3406         0.623533   
     23. B(F  23,C   9)                  1.3385         0.628179   
     24. B(F  24,C   9)                  1.3373         0.630929   
     25. A(O   1,C   0,C   3)          111.5249         0.369222   
     26. A(O   1,C   0,O   2)          136.1318         0.413163   
     27. A(O   2,C   0,C   3)          112.3347         0.371210   
     28. A(C   0,C   3,F  10)          111.8265         0.364982   
     29. A(C   4,C   3,F  11)          107.4072         0.373095   
     30. A(F  10,C   3,F  11)          106.7094         0.399684   
     31. A(C   0,C   3,C   4)          113.1687         0.341363   
     32. A(C   0,C   3,F  11)          110.2099         0.363632   
     33. A(C   4,C   3,F  10)          107.2033         0.374492   
     34. A(C   3,C   4,F  12)          110.2926         0.381351   
     35. A(F  12,C   4,F  13)          108.2194         0.415201   
     36. A(C   3,C   4,C   5)          113.5839         0.349005   
     37. A(C   5,C   4,F  13)          107.9208         0.379109   
     38. A(C   3,C   4,F  13)          108.5818         0.380286   
     39. A(C   5,C   4,F  12)          108.0911         0.380169   
     40. A(F  14,C   5,F  15)          109.0206         0.417483   
     41. A(C   4,C   5,C   6)          113.9128         0.347536   
     42. A(C   6,C   5,F  15)          107.7906         0.380059   
     43. A(C   4,C   5,F  15)          108.5900         0.380529   
     44. A(C   6,C   5,F  14)          108.2026         0.380308   
     45. A(C   4,C   5,F  14)          109.2282         0.380779   
     46. A(C   5,C   6,C   7)          113.2023         0.346660   
     47. A(F  16,C   6,F  17)          108.8752         0.417862   
     48. A(C   7,C   6,F  17)          108.2186         0.379927   
     49. A(C   5,C   6,F  17)          109.1523         0.380446   
     50. A(C   7,C   6,F  16)          108.4284         0.379738   
     51. A(C   5,C   6,F  16)          108.8835         0.380256   
     52. A(C   8,C   7,F  18)          108.1296         0.380723   
     53. A(C   6,C   7,F  18)          109.2524         0.379972   
     54. A(F  18,C   7,F  19)          108.7561         0.418014   
     55. A(C   6,C   7,C   8)          113.2298         0.346865   
     56. A(C   8,C   7,F  19)          108.6915         0.380579   
     57. A(C   6,C   7,F  19)          108.6955         0.379828   
     58. A(C   9,C   8,F  21)          107.7127         0.381912   
     59. A(C   7,C   8,F  21)          109.0521         0.381293   
     60. A(C   9,C   8,F  20)          107.4499         0.381036   
     61. A(C   7,C   8,C   9)          114.1471         0.348078   
     62. A(F  20,C   8,F  21)          108.8987         0.418476   
     63. A(C   7,C   8,F  20)          109.4572         0.380419   
     64. A(F  23,C   9,F  24)          108.6464         0.426961   
     65. A(F  22,C   9,F  24)          109.0552         0.426394   
     66. A(C   8,C   9,F  24)          110.9604         0.385362   
     67. A(F  22,C   9,F  23)          108.6877         0.426061   
     68. A(C   8,C   9,F  23)          108.6349         0.385069   
     69. A(C   8,C   9,F  22)          110.7995         0.384572   
     70. D(F  11,C   3,C   0,O   1)    108.6317         0.006601   
     71. D(F  10,C   3,C   0,O   1)     -9.8890         0.006601   
     72. D(C   4,C   3,C   0,O   2)     49.8076         0.006601   
     73. D(C   4,C   3,C   0,O   1)   -131.0839         0.006601   
     74. D(F  10,C   3,C   0,O   2)    171.0025         0.006601   
     75. D(C   5,C   4,C   3,C   0)    148.6429         0.009100   
     76. D(F  12,C   4,C   3,F  11)     32.0233         0.009100   
     77. D(C   5,C   4,C   3,F  11)    -89.4885         0.009100   
     78. D(F  12,C   4,C   3,C   0)    -89.8453         0.009100   
     79. D(F  12,C   4,C   3,F  10)    146.3851         0.009100   
     80. D(C   5,C   4,C   3,F  10)     24.8733         0.009100   
     81. D(F  14,C   5,C   4,C   3)    -74.9661         0.008811   
     82. D(C   6,C   5,C   4,F  12)     41.2001         0.008811   
     83. D(C   6,C   5,C   4,C   3)    163.9326         0.008811   
     84. D(C   6,C   5,C   4,F  13)    -75.6292         0.008811   
     85. D(F  14,C   5,C   4,F  13)     45.4721         0.008811   
     86. D(F  14,C   5,C   4,F  12)    162.3014         0.008811   
     87. D(F  16,C   6,C   5,F  14)    161.9826         0.008700   
     88. D(F  16,C   6,C   5,C   4)    -76.3465         0.008700   
     89. D(C   7,C   6,C   5,F  15)    -76.4529         0.008700   
     90. D(C   7,C   6,C   5,F  14)     41.3107         0.008700   
     91. D(F  16,C   6,C   5,F  15)     44.2190         0.008700   
     92. D(C   7,C   6,C   5,C   4)    162.9815         0.008700   
     93. D(F  18,C   7,C   6,F  17)    162.9167         0.008578   
     94. D(F  18,C   7,C   6,F  16)    -79.1358         0.008578   
     95. D(F  18,C   7,C   6,C   5)     41.7939         0.008578   
     96. D(C   8,C   7,C   6,F  17)    -76.5134         0.008578   
     97. D(C   8,C   7,C   6,F  16)     41.4341         0.008578   
     98. D(C   8,C   7,C   6,C   5)    162.3638         0.008578   
     99. D(C   9,C   8,C   7,F  18)    -76.3785         0.008755   
    100. D(C   9,C   8,C   7,C   6)    162.4166         0.008755   
    101. D(F  20,C   8,C   7,F  19)    -78.9355         0.008755   
    102. D(F  20,C   8,C   7,F  18)    163.1633         0.008755   
    103. D(F  20,C   8,C   7,C   6)     41.9584         0.008755   
    104. D(C   9,C   8,C   7,F  19)     41.5227         0.008755   
    105. D(F  23,C   9,C   8,F  21)     48.1091         0.008903   
    106. D(F  23,C   9,C   8,F  20)    -69.0724         0.008903   
    107. D(F  23,C   9,C   8,C   7)    169.3552         0.008903   
    108. D(F  22,C   9,C   8,F  21)    -71.2185         0.008903   
    109. D(F  22,C   9,C   8,F  20)    171.5999         0.008903   
    110. D(F  22,C   9,C   8,C   7)     50.0276         0.008903   
    -----------------------------------------------------------------

Number of atoms                         .... 25
Number of degrees of freedom            .... 110


         *************************************************************
         *                GEOMETRY OPTIMIZATION CYCLE   1            *
         *************************************************************
---------------------------------
CARTESIAN COORDINATES (ANGSTROEM)
---------------------------------
  C      4.790427   -0.033866   -0.529943
  O      5.449345   -1.206924   -0.894595
  O      4.978223    1.323071   -0.737377
  C      3.506688   -0.338742    0.376154
  C      2.222300    0.400525   -0.110682
  C      0.900507   -0.386390    0.175703
  C     -0.395261    0.487294    0.065549
  C     -1.705694   -0.364774   -0.068374
  C     -3.005136    0.445345    0.258164
  C     -4.319880   -0.214526   -0.270541
  F      3.211587   -1.692050    0.412735
  F      3.741062    0.055286    1.689949
  F      2.125697    1.616868    0.483237
  F      2.314152    0.589704   -1.455769
  F      0.794029   -1.413561   -0.700839
  F      0.958351   -0.884509    1.435093
  F     -0.498373    1.260266    1.173340
  F     -0.299075    1.289513   -1.020911
  F     -1.641790   -1.418189    0.779524
  F     -1.792381   -0.831392   -1.336864
  F     -2.918792    1.679227   -0.295171
  F     -3.119771    0.573780    1.598580
  F     -4.383116   -1.504378    0.089128
  F     -5.365670    0.430529    0.260394
  F     -4.396020   -0.128551   -1.602942

----------------------------
CARTESIAN COORDINATES (A.U.)
----------------------------
  NO LB      ZA    FRAG     MASS         X           Y           Z
   0 C     6.0000    0    12.011    9.052595   -0.063997   -1.001448
   1 O     8.0000    0    15.999   10.297770   -2.280756   -1.690539
   2 O     8.0000    0    15.999    9.407478    2.500242   -1.393441
   3 C     6.0000    0    12.011    6.626679   -0.640129    0.710828
   4 C     6.0000    0    12.011    4.199538    0.756882   -0.209158
   5 C     6.0000    0    12.011    1.701711   -0.730171    0.332031
   6 C     6.0000    0    12.011   -0.746935    0.920852    0.123870
   7 C     6.0000    0    12.011   -3.223294   -0.689323   -0.129207
   8 C     6.0000    0    12.011   -5.678884    0.841580    0.487859
   9 C     6.0000    0    12.011   -8.163391   -0.405395   -0.511248
  10 F     9.0000    0    18.998    6.069021   -3.197512    0.779956
  11 F     9.0000    0    18.998    7.069582    0.104475    3.193540
  12 F     9.0000    0    18.998    4.016985    3.055437    0.913185
  13 F     9.0000    0    18.998    4.373114    1.114379   -2.751005
  14 F     9.0000    0    18.998    1.500497   -2.671244   -1.324394
  15 F     9.0000    0    18.998    1.811020   -1.671480    2.711934
  16 F     9.0000    0    18.998   -0.941789    2.381557    2.217292
  17 F     9.0000    0    18.998   -0.565170    2.436826   -1.929242
  18 F     9.0000    0    18.998   -3.102534   -2.679989    1.473086
  19 F     9.0000    0    18.998   -3.387110   -1.571102   -2.526306
  20 F     9.0000    0    18.998   -5.515718    3.173280   -0.557793
  21 F     9.0000    0    18.998   -5.895513    1.084287    3.020878
  22 F     9.0000    0    18.998   -8.282888   -2.842862    0.168427
  23 F     9.0000    0    18.998  -10.139646    0.813581    0.492074
  24 F     9.0000    0    18.998   -8.307275   -0.242925   -3.029121

--------------------------------
INTERNAL COORDINATES (ANGSTROEM)
--------------------------------
 C      0   0   0     0.000000000000     0.00000000     0.00000000
 O      1   0   0     1.393990356793     0.00000000     0.00000000
 O      1   2   0     1.385486802956   136.13177198     0.00000000
 C      1   2   3     1.600608594862   111.52489317   181.18992567
 C      4   1   2     1.559863783763   113.16872737   228.91614990
 C      5   4   1     1.564732561934   113.58394786   148.64287440
 C      6   5   4     1.566675459667   113.91280616   163.93256239
 C      7   6   5     1.568817348692   113.20226571   162.98152714
 C      8   7   6     1.565717094808   113.22984595   162.36375422
 C      9   8   7     1.563173062643   114.14707705   162.41661495
 F      4   1   2     1.385592665621   111.82651119   350.11101305
 F      4   1   2     1.391490625050   110.20991618   108.63170802
 F      5   4   1     1.357041377479   110.29260564   270.15468021
 F      5   4   1     1.361428031433   108.58179722    28.57841973
 F      6   5   4     1.354527570075   109.22822656   285.03385927
 F      6   5   4     1.355556277776   108.59004089    43.81583148
 F      7   6   5     1.354739297058   108.88346185   283.65347401
 F      7   6   5     1.353957667090   109.15230848    42.38718856
 F      8   7   6     1.353771473879   109.25240264    41.79387651
 F      8   7   6     1.354368423305   108.69554158   283.25540020
 F      9   8   7     1.355028009646   109.45719767    41.95842364
 F      9   8   7     1.351425618925   109.05210362   282.91820052
 F     10   9   8     1.340551089588   110.79953142    50.02756898
 F     10   9   8     1.338530275591   108.63493714   169.35523750
 F     10   9   8     1.337341214598   110.96044107   288.72891896

---------------------------
INTERNAL COORDINATES (A.U.)
---------------------------
 C      0   0   0     0.000000000000     0.00000000     0.00000000
 O      1   0   0     2.634260007667     0.00000000     0.00000000
 O      1   2   0     2.618190619750   136.13177198     0.00000000
 C      1   2   3     3.024711891890   111.52489317   181.18992567
 C      4   1   2     2.947715357535   113.16872737   228.91614990
 C      5   4   1     2.956916014884   113.58394786   148.64287440
 C      6   5   4     2.960587559506   113.91280616   163.93256239
 C      7   6   5     2.964635143173   113.20226571   162.98152714
 C      8   7   6     2.958776512386   113.22984595   162.36375422
 C      9   8   7     2.953968988318   114.14707705   162.41661495
 F      4   1   2     2.618390671194   111.82651119   350.11101305
 F      4   1   2     2.629536199263   110.20991618   108.63170802
 F      5   4   1     2.564436555835   110.29260564   270.15468021
 F      5   4   1     2.572726130452   108.58179722    28.57841973
 F      6   5   4     2.559686148288   109.22822656   285.03385927
 F      6   5   4     2.561630124115   108.59004089    43.81583148
 F      7   6   5     2.560086254300   108.88346185   283.65347401
 F      7   6   5     2.558609187723   109.15230848    42.38718856
 F      8   7   6     2.558257333546   109.25240264    41.79387651
 F      8   7   6     2.559385404477   108.69554158   283.25540020
 F      9   8   7     2.560631842023   109.45719767    41.95842364
 F      9   8   7     2.553824310132   109.05210362   282.91820052
 F     10   9   8     2.533274427850   110.79953142    50.02756898
 F     10   9   8     2.529455642830   108.63493714   169.35523750
 F     10   9   8     2.527208643196   110.96044107   288.72891896

---------------------
BASIS SET INFORMATION
---------------------
There are 3 groups of distinct atoms

 Group   1 Type C   : 11s6p2d1f contracted to 5s3p2d1f pattern {62111/411/11/1}
 Group   2 Type O   : 11s6p2d1f contracted to 5s3p2d1f pattern {62111/411/11/1}
 Group   3 Type F   : 11s6p2d1f contracted to 5s3p2d1f pattern {62111/411/11/1}

Atom   0C    basis set group =>   1
Atom   1O    basis set group =>   2
Atom   2O    basis set group =>   2
Atom   3C    basis set group =>   1
Atom   4C    basis set group =>   1
Atom   5C    basis set group =>   1
Atom   6C    basis set group =>   1
Atom   7C    basis set group =>   1
Atom   8C    basis set group =>   1
Atom   9C    basis set group =>   1
Atom  10F    basis set group =>   3
Atom  11F    basis set group =>   3
Atom  12F    basis set group =>   3
Atom  13F    basis set group =>   3
Atom  14F    basis set group =>   3
Atom  15F    basis set group =>   3
Atom  16F    basis set group =>   3
Atom  17F    basis set group =>   3
Atom  18F    basis set group =>   3
Atom  19F    basis set group =>   3
Atom  20F    basis set group =>   3
Atom  21F    basis set group =>   3
Atom  22F    basis set group =>   3
Atom  23F    basis set group =>   3
Atom  24F    basis set group =>   3
---------------------------------
AUXILIARY/J BASIS SET INFORMATION
---------------------------------
There are 3 groups of distinct atoms

 Group   1 Type C   : 12s5p4d2f1g contracted to 6s4p3d1f1g pattern {711111/2111/211/2/1}
 Group   2 Type O   : 12s5p4d2f1g contracted to 6s4p3d1f1g pattern {711111/2111/211/2/1}
 Group   3 Type F   : 12s5p4d2f1g contracted to 6s4p3d1f1g pattern {711111/2111/211/2/1}

Atom   0C    basis set group =>   1
Atom   1O    basis set group =>   2
Atom   2O    basis set group =>   2
Atom   3C    basis set group =>   1
Atom   4C    basis set group =>   1
Atom   5C    basis set group =>   1
Atom   6C    basis set group =>   1
Atom   7C    basis set group =>   1
Atom   8C    basis set group =>   1
Atom   9C    basis set group =>   1
Atom  10F    basis set group =>   3
Atom  11F    basis set group =>   3
Atom  12F    basis set group =>   3
Atom  13F    basis set group =>   3
Atom  14F    basis set group =>   3
Atom  15F    basis set group =>   3
Atom  16F    basis set group =>   3
Atom  17F    basis set group =>   3
Atom  18F    basis set group =>   3
Atom  19F    basis set group =>   3
Atom  20F    basis set group =>   3
Atom  21F    basis set group =>   3
Atom  22F    basis set group =>   3
Atom  23F    basis set group =>   3
Atom  24F    basis set group =>   3


           ************************************************************
           *        Program running with 20 parallel MPI-processes    *
           *              working on a common directory               *
           ************************************************************
------------------------------------------------------------------------------
                             ORCA STARTUP CALCULATIONS
                           -- RI-GTO INTEGRALS CHOSEN --
------------------------------------------------------------------------------
------------------------------------------------------------------------------
                   ___                                                        
                  /   \      - P O W E R E D   B Y -                         
                 /     \                                                     
                 |  |  |   _    _      __       _____    __    __             
                 |  |  |  | |  | |    /  \     |  _  \  |  |  /  |          
                  \  \/   | |  | |   /    \    | | | |  |  | /  /          
                 / \  \   | |__| |  /  /\  \   | |_| |  |  |/  /          
                |  |  |   |  __  | /  /__\  \  |    /   |      \           
                |  |  |   | |  | | |   __   |  |    \   |  |\   \          
                \     /   | |  | | |  |  |  |  | |\  \  |  | \   \       
                 \___/    |_|  |_| |__|  |__|  |_| \__\ |__|  \__/        
                                                                              
                      - O R C A' S   B I G   F R I E N D -                    
                                      &                                       
                       - I N T E G R A L  F E E D E R -                       
                                                                              
 v1 FN, 2020, v2 2021, v3 2022-2024                                           
------------------------------------------------------------------------------


----------------------
SHARK INTEGRAL PACKAGE
----------------------

Number of atoms                             ...     25
Number of basis functions                   ...    775
Number of shells                            ...    275
Maximum angular momentum                    ...      3
Integral batch strategy                     ... SHARK/LIBINT Hybrid
RI-J (if used) integral strategy            ... SPLIT-RIJ (Revised 2003 algorithm where possible)
Printlevel                                  ...      1
Contraction scheme used                     ... SEGMENTED contraction
Prescreening option                         ... SCHWARTZ
   Thresh                                   ... 2.500e-11
   Tcut                                     ... 2.500e-12
   Tpresel                                  ... 2.500e-12 
Coulomb Range Separation                    ... NOT USED
Exchange Range Separation                   ... NOT USED
Multipole approximations                    ... NOT USED
Finite Nucleus Model                        ... NOT USED
CABS basis                                  ... NOT available
Auxiliary Coulomb fitting basis             ... AVAILABLE
   # of basis functions in Aux-J            ...   1225
   # of shells in Aux-J                     ...    375
   Maximum angular momentum in Aux-J        ...      4
Auxiliary J/K fitting basis                 ... NOT available
Auxiliary Correlation fitting basis         ... NOT available
Auxiliary 'external' fitting basis          ... NOT available

Checking pre-screening integrals            ... done (  0.0 sec) Dimension = 275
Check shell pair data                       ... done (  0.0 sec)
Shell pair information
Shell pair cut-off parameter TPreSel        ...   2.5e-12
Total number of shell pairs                 ...     37950
Shell pairs after pre-screening             ...     23325
Total number of primitive shell pairs       ...    125800
Primitive shell pairs kept                  ...     49419
          la=0 lb=0:   4351 shell pairs
          la=1 lb=0:   6349 shell pairs
          la=1 lb=1:   2227 shell pairs
          la=2 lb=0:   3461 shell pairs
          la=2 lb=1:   2576 shell pairs
          la=2 lb=2:    727 shell pairs
          la=3 lb=0:   1568 shell pairs
          la=3 lb=1:   1240 shell pairs
          la=3 lb=2:    666 shell pairs
          la=3 lb=3:    160 shell pairs

Calculating one electron integrals          ... done (  0.0 sec)
Calculating RI/J V-Matrix + Cholesky decomp.... done (  0.1 sec)
Calculating Nuclear repulsion               ... done (  0.0 sec) ENN=   2860.975784253119 Eh

Diagonalization of the overlap matrix:
Smallest eigenvalue                        ... 6.047e-05
Time for diagonalization                   ...    0.110 sec
Threshold for overlap eigenvalues          ... 1.000e-07
Number of eigenvalues below threshold      ... 0
Time for construction of square roots      ...    0.049 sec
Total time needed                          ...    0.164 sec

-------------------
DFT GRID GENERATION
-------------------

General Integration Accuracy     IntAcc      ... 4.388
Radial Grid Type                 RadialGrid  ... OptM3 with GC (2021)
Angular Grid (max. ang.)         AngularGrid ... 4 (Lebedev-302)
Angular grid pruning method      GridPruning ... 4 (adaptive)
Weight generation scheme         WeightScheme... mBecke (2022)
Basis function cutoff            BFCut       ... 1.0000e-11
Integration weight cutoff        WCut        ... 1.0000e-14
Partially contracted basis set               ... off
Rotationally invariant grid construction     ... off
Angular grids for H and He will be reduced by one unit

Total number of grid points                  ...   151489
Total number of batches                      ...     2379
Average number of points per batch           ...       63
Average number of grid points per atom       ...     6060

--------------------
COSX GRID GENERATION
--------------------

GRIDX 1
-------
General Integration Accuracy     IntAcc      ... 3.816
Radial Grid Type                 RadialGrid  ... OptM3 with GC (2021)
Angular Grid (max. ang.)         AngularGrid ... 1 (Lebedev-50)
Angular grid pruning method      GridPruning ... 4 (adaptive)
Weight generation scheme         WeightScheme... mBecke (2022)
Basis function cutoff            BFCut       ... 1.0000e-11
Integration weight cutoff        WCut        ... 1.0000e-14
Partially contracted basis set               ... on
Rotationally invariant grid construction     ... off
Angular grids for H and He will be reduced by one unit

Total number of grid points                  ...    19031
Total number of batches                      ...      159
Average number of points per batch           ...      119
Average number of grid points per atom       ...      761
UseSFitting                                  ... on

GRIDX 2
-------
General Integration Accuracy     IntAcc      ... 4.020
Radial Grid Type                 RadialGrid  ... OptM3 with GC (2021)
Angular Grid (max. ang.)         AngularGrid ... 2 (Lebedev-110)
Angular grid pruning method      GridPruning ... 4 (adaptive)
Weight generation scheme         WeightScheme... mBecke (2022)
Basis function cutoff            BFCut       ... 1.0000e-11
Integration weight cutoff        WCut        ... 1.0000e-14
Partially contracted basis set               ... on
Rotationally invariant grid construction     ... off
Angular grids for H and He will be reduced by one unit

Total number of grid points                  ...    45091
Total number of batches                      ...      367
Average number of points per batch           ...      122
Average number of grid points per atom       ...     1804
UseSFitting                                  ... on

GRIDX 3
-------
General Integration Accuracy     IntAcc      ... 4.338
Radial Grid Type                 RadialGrid  ... OptM3 with GC (2021)
Angular Grid (max. ang.)         AngularGrid ... 3 (Lebedev-194)
Angular grid pruning method      GridPruning ... 4 (adaptive)
Weight generation scheme         WeightScheme... mBecke (2022)
Basis function cutoff            BFCut       ... 1.0000e-11
Integration weight cutoff        WCut        ... 1.0000e-14
Partially contracted basis set               ... on
Rotationally invariant grid construction     ... off
Angular grids for H and He will be reduced by one unit

Total number of grid points                  ...    99878
Total number of batches                      ...      788
Average number of points per batch           ...      126
Average number of grid points per atom       ...     3995
UseSFitting                                  ... on
Initializing property integral containers    ... done (  0.0 sec)

SHARK setup successfully completed in   2.9 seconds

Maximum memory used throughout the entire STARTUP-calculation: 59.4 MB


           ************************************************************
           *        Program running with 20 parallel MPI-processes    *
           *              working on a common directory               *
           ************************************************************
-------------------------------------------------------------------------------
                                 ORCA GUESS
                   Start orbitals & Density for SCF / CASSCF
-------------------------------------------------------------------------------

------------
SCF SETTINGS
------------
Hamiltonian:
 Density Functional     Method          .... DFT(GTOs)
 Exchange Functional    Exchange        .... B88
   X-Alpha parameter    XAlpha          ....  0.666667
   Becke's b parameter  XBeta           ....  0.004200
 Correlation Functional Correlation     .... LYP
 LDA part of GGA corr.  LDAOpt          .... VWN-5
 Gradients option       PostSCFGGA      .... off
 Hybrid DFT is turned on
   Fraction HF Exchange ScalHFX         ....  0.200000
   Scaling of DF-GGA-X  ScalDFX         ....  0.720000
   Scaling of DF-GGA-C  ScalDFC         ....  0.810000
   Scaling of DF-LDA-C  ScalLDAC        ....  1.000000
   Perturbative correction              ....  0.000000
   NL short-range parameter             ....  4.800000
 RI-approximation to the Coulomb term is turned on
   Number of AuxJ basis functions       .... 1225
   RIJ-COSX (HFX calculated with COS-X)).... on


General Settings:
 Integral files         IntName         .... rf_mecn_opt_B3L_D_A
 Hartree-Fock type      HFTyp           .... UHF
 Total Charge           Charge          ....   -2
 Multiplicity           Mult            ....    2
 Number of Electrons    NEL             ....  201
 Basis Dimension        Dim             ....  775
 Nuclear Repulsion      ENuc            ....   2860.9757842531 Eh

Convergence Acceleration:
 AO-DIIS                CNVDIIS         .... on
   Start iteration      DIISMaxIt       ....     0
   Startup error        DIISStart       ....  0.200000
   # of expansion vecs  DIISMaxEq       ....     5
   Bias factor          DIISBfac        ....   1.050
   Max. coefficient     DIISMaxC        ....  10.000
 MO-DIIS                CNVKDIIS        .... off
 Trust-Rad. Augm. Hess. CNVTRAH         .... auto
   Auto Start mean grad. ratio tolernc. ....  1.125000
   Auto Start start iteration           ....    50
   Auto Start num. interpolation iter.  ....    10
   Max. Number of Micro iterations      ....    24
   Max. Number of Macro iterations      .... Maxiter - #DIIS iter
   Number of Davidson start vectors     ....     2
   Converg. threshold    (grad. norm)   ....   1.000e-05
   Grad. Scal. Fac. for Micro threshold ....   0.100
   Minimum threshold for Micro iter.    ....   1.000e-02
   NR start threshold (gradient norm)   ....   1.000e-04
   Initial trust radius                 ....   0.400
   Minimum AH scaling param. (alpha)    ....   1.000
   Maximum AH scaling param. (alpha)    .... 1000.000
   Quad. conv. algorithm                .... NR
   White noise on init. David. guess    .... on
   Maximum white noise                  ....   0.010
   Pseudo random numbers                .... off
   Inactive MOs                         .... canonical
   Orbital update algorithm             .... Taylor
   Preconditioner                       .... Diag
   Full preconditioner red. dimension   ....   250
 SOSCF                  CNVSOSCF        .... on
   Start iteration      SOSCFMaxIt      ....   150
   Startup grad/error   SOSCFStart      ....  0.001000
   Hessian update       SOSCFHessUp     .... L-BFGS
 Level Shifting         CNVShift        .... on
   Level shift para.    LevelShift      ....    0.2500
   Turn off err/grad.   ShiftErr        ....    0.0000
 Zerner damping         CNVZerner       .... off
 Static damping         CNVDamp         .... on
   Fraction old density DampFac         ....    0.8500
   Max. Damping (<1)    DampMax         ....    0.9800
   Min. Damping (>=0)   DampMin         ....    0.0000
   Turn off err/grad.   DampErr         ....    0.0300

SCF Procedure:
 Maximum # iterations   MaxIter         ....  1500
 SCF integral mode      SCFMode         .... Direct
   Integral package                     .... SHARK and LIBINT hybrid scheme
 Reset frequency        DirectResetFreq ....    20
 Integral Threshold     Thresh          ....  2.500e-11 Eh
 Primitive CutOff       TCut            ....  2.500e-12 Eh

Convergence Tolerance:
 Convergence Check Mode ConvCheckMode   .... Total+1el-Energy
 Convergence forced     ConvForced      .... 0
 Energy Change          TolE            ....  1.000e-08 Eh
 1-El. energy change                    ....  1.000e-05 Eh
 Orbital Gradient       TolG            ....  1.000e-05
 Orbital Rotation angle TolX            ....  1.000e-05
 DIIS Error             TolErr          ....  5.000e-07

------------------------------
INITIAL GUESS: MODEL POTENTIAL
------------------------------
Loading Hartree-Fock densities                     ... done
Calculating cut-offs                               ... done
Initializing the effective Hamiltonian             ... done
Setting up the integral package (SHARK)            ... done
Starting the Coulomb interaction                   ... done (   0.1 sec)
Making the grid                                    ... done (   0.5 sec)
Mapping shells                                     ... done
Starting the XC term evaluation                    ... done (   0.1 sec)
  promolecular density results
     # of electrons  =    199.000496603
     EX              =   -208.191704094
     EC              =     -7.488625665
     EX+EC           =   -215.680329759
Transforming the Hamiltonian                       ... done (   0.0 sec)
Diagonalizing the Hamiltonian                      ... done (   0.1 sec)
Back transforming the eigenvectors                 ... done (   0.0 sec)
Now organizing SCF variables                       ... done
                      ------------------
                      INITIAL GUESS DONE (   1.0 sec)
                      ------------------
             **** ENERGY FILE WAS UPDATED (rf_mecn_opt_B3L_D_A.en.tmp) ****
Finished Guess after   1.8 sec
Maximum memory used throughout the entire GUESS-calculation: 48.5 MB


           ************************************************************
           *        Program running with 20 parallel MPI-processes    *
           *              working on a common directory               *
           ************************************************************

-------------------------------------------------------------------------------------------
                                      ORCA LEAN-SCF
                              memory conserving SCF solver
-------------------------------------------------------------------------------------------

--------------------
CPCM SOLVATION MODEL
--------------------
CPCM parameters:
  Epsilon                                         ...      35.6880
  Refrac                                          ...       1.3442
  Rsolv                                           ...       1.3000
  Surface type                                    ... GAUSSIAN VDW
  Discretization scheme                           ... Constant charge density
    Threshold for H atoms                         ...       5.0000 (charges/Ang^2)
    Threshold for non-H atoms                     ...       5.0000 (charges/Ang^2)
  Epsilon function type                           ...         CPCM
Solvent:                                          ... ACETONITRILE
SMD-CDS solvent descriptors:
  Soln                                            ...       1.3442
  Soln25                                          ...       1.3416
  Sola                                            ...       0.0700
  Solb                                            ...       0.3200
  Solg                                            ...      41.2500
  Solc                                            ...       0.0000
  Solh                                            ...       0.0000
Radii:
  Scheme                                          ... Element-dependent radii
  Radius for C  used is    3.4960 Bohr (=   1.8500 Ang.)
  Radius for O  used is    4.0969 Bohr (=   2.1680 Ang.)
  Radius for F  used is    3.2692 Bohr (=   1.7300 Ang.)
Calculating surface                               ...        done! (  0.0s)
Cavity surface points                             ...         2164
Cavity Volume                                     ...    2191.6855
Cavity Surface-area                               ...    1131.7098
Calculating surface distance matrix               ...        done! (  0.0s)
Performing Cholesky decomposition & store         ...        done! (  0.1s)
Overall time for CPCM initialization              ...                 0.1s

----------------------------------------D-I-I-S--------------------------------------------
Iteration    Energy (Eh)           Delta-E    RMSDP     MaxDP     DIISErr   Damp  Time(sec)
-------------------------------------------------------------------------------------------
               ***  Starting incremental Fock matrix formation  ***
    1    -1952.4417198041278425     0.00e+00  6.21e-04  1.33e-01  2.05e-01  0.850   6.6
Warning: op=0 Small HOMO/LUMO gap (  -0.074) - skipping pre-diagonalization
         Will do a full diagonalization
    2    -1952.6602802251732101    -2.19e-01  9.63e-04  2.48e-01  1.37e-01  0.850   4.6
                               ***Turning on AO-DIIS***
    3    -1952.7782979258886371    -1.18e-01  4.99e-04  8.23e-02  7.54e-02  0.850   4.0
    4    -1952.8453599614872473    -6.71e-02  2.83e-04  3.87e-02  5.29e-02  0.850   4.0
    5    -1952.8920523305882853    -4.67e-02  1.77e-04  1.60e-02  4.34e-02  0.850   4.0
    6    -1952.9286517769455713    -3.66e-02  1.26e-04  2.07e-02  3.79e-02  0.850   3.8
    7    -1952.9589369584896303    -3.03e-02  1.00e-04  1.92e-02  3.29e-02  0.850   3.7
    8    -1952.9846289539550526    -2.57e-02  8.37e-05  1.53e-02  2.77e-02  0.850   3.7
    9    -1953.0063989976001722    -2.18e-02  4.79e-04  8.07e-02  2.30e-02  0.000   3.7
   10    -1953.1237505163894639    -1.17e-01  4.93e-05  5.07e-03  3.68e-03  0.000   4.1
   11    -1953.1240251940175767    -2.75e-04  3.60e-05  4.94e-03  1.67e-03  0.000   3.6
   12    -1953.1241231831031655    -9.80e-05  2.68e-05  2.70e-03  1.51e-03  0.000   3.5
                              *** Initializing SOSCF ***
---------------------------------------S-O-S-C-F--------------------------------------
Iteration    Energy (Eh)           Delta-E    RMSDP     MaxDP     MaxGrad    Time(sec)
--------------------------------------------------------------------------------------
   13    -1953.1241760074485683    -5.28e-05  2.40e-05  2.70e-03  6.00e-04     3.9
               *** Restarting incremental Fock matrix formation ***
   14    -1953.1242304326765407    -5.44e-05  4.90e-05  4.06e-03  1.45e-03     6.5
   15    -1953.1242866199750097    -5.62e-05  2.28e-04  1.80e-02  9.20e-04     5.2
   16    -1953.1244061353913821    -1.20e-04  4.93e-05  4.22e-03  1.20e-03     5.6
   17    -1953.1244386305984335    -3.25e-05  3.88e-05  2.85e-03  9.84e-04     5.3
   18    -1953.1244686803552213    -3.00e-05  5.76e-05  3.63e-03  6.58e-04     5.2
   19    -1953.1244823892989189    -1.37e-05  3.17e-05  3.58e-03  3.10e-04     5.2
   20    -1953.1244884647708204    -6.08e-06  4.36e-06  2.76e-04  1.39e-04     5.2
   21    -1953.1244894910682888    -1.03e-06  2.16e-06  2.19e-04  6.45e-05     4.6
   22    -1953.1244897146248150    -2.24e-07  2.25e-06  1.77e-04  4.83e-05     4.2
   23    -1953.1244898461350203    -1.32e-07  1.56e-06  1.88e-04  1.87e-05     4.3
   24    -1953.1244898678364734    -2.17e-08  5.62e-07  3.46e-05  1.35e-05     4.1
   25    -1953.1244898838372137    -1.60e-08  5.65e-07  5.04e-05  7.63e-06     3.9
   26    -1953.1244898898789870    -6.04e-09  2.57e-07  2.85e-05  6.72e-06     3.7
                 **** Energy Check signals convergence ****

               *****************************************************
               *                     SUCCESS                       *
               *           SCF CONVERGED AFTER  26 CYCLES          *
               *****************************************************

Recomputing exchange energy using gridx3       ... done (    8.187 sec)
Old exchange energy                            :    -41.811739050 Eh
New exchange energy                            :    -41.811760597 Eh
Exchange energy change after final integration :     -0.000021547 Eh
Total energy after final integration           :  -1953.124511437 Eh

SMD CDS free energy correction energy :                 3.69432     Kcal/mol
Total Energy after SMD CDS correction =             -1953.118624170 Eh
             **** ENERGY FILE WAS UPDATED (rf_mecn_opt_B3L_D_A.en.tmp) ****

----------------
TOTAL SCF ENERGY
----------------

Total Energy       :      -1953.11862417019256 Eh          -53147.05971 eV

Components:
Nuclear Repulsion  :       2860.97578425311940 Eh           77851.10896 eV
Electronic Energy  :      -4813.82051715819125 Eh         -130990.71571 eV
One Electron Energy:      -8464.00792743692546 Eh         -230317.36481 eV
Two Electron Energy:       3650.18741027873421 Eh           99326.64910 eV
CPCM Dielectric    :         -0.27975698480713 Eh              -7.61257 eV
SMD CDS (Gcds)     :          0.00588726697443 Eh               0.16020 eV

Virial components:
Potential Energy   :      -3899.28033538640284 Eh         -106104.81219 eV
Kinetic Energy     :       1946.16171121621051 Eh           52957.75248 eV
Virial Ratio       :          2.00357468390930

DFT components:
N(Alpha)           :      100.999994267803 electrons
N(Beta)            :       99.999979534130 electrons
N(Total)           :      200.999973801934 electrons
E(X)               :     -166.714027514555 Eh       
E(C)               :       -8.822949683309 Eh       
E(XC)              :     -175.536977197864 Eh       

CPCM Solvation Model Properties:
Surface-charge          :          1.98789399806158
Corrected charge        :          2.00000000000000
Outlying charge corr.   :          0.00000794136865 Eh               0.00022 eV
Free-energy (cav+disp)  :          0.00588726697443 Eh               0.16020 eV

---------------
SCF CONVERGENCE
---------------

  Last Energy change         ...    6.0418e-09  Tolerance :   1.0000e-08
  Last MAX-Density change    ...    2.8525e-05  Tolerance :   1.0000e-07
  Last RMS-Density change    ...    2.5732e-07  Tolerance :   5.0000e-09
  Last DIIS Error            ...    5.9961e-04  Tolerance :   5.0000e-07
  Last Orbital Gradient      ...    6.7214e-06  Tolerance :   1.0000e-05
  Last Orbital Rotation      ...    6.8842e-05  Tolerance :   1.0000e-05


----------------------
UHF SPIN CONTAMINATION
----------------------

Warning: in a DFT calculation there is little theoretical justification to 
         calculate <S**2> as in Hartree-Fock theory. We will do it anyways
         but you should keep in mind that the values have only limited relevance

Expectation value of <S**2>     :     0.752716
Ideal value S*(S+1) for S=0.5   :     0.750000
Deviation                       :     0.002716

----------------
ORBITAL ENERGIES
----------------
                 SPIN UP ORBITALS
  NO   OCC          E(Eh)            E(eV) 
   0   1.0000     -24.735365      -673.0835 
   1   1.0000     -24.734920      -673.0714 
   2   1.0000     -24.733444      -673.0312 
   3   1.0000     -24.727656      -672.8737 
   4   1.0000     -24.725908      -672.8261 
   5   1.0000     -24.723279      -672.7546 
   6   1.0000     -24.720236      -672.6718 
   7   1.0000     -24.717400      -672.5946 
   8   1.0000     -24.714066      -672.5039 
   9   1.0000     -24.709458      -672.3785 
  10   1.0000     -24.704747      -672.2503 
  11   1.0000     -24.694554      -671.9730 
  12   1.0000     -24.686483      -671.7533 
  13   1.0000     -24.662278      -671.0947 
  14   1.0000     -24.659318      -671.0142 
  15   1.0000     -19.012149      -517.3469 
  16   1.0000     -19.010440      -517.3004 
  17   1.0000     -10.448550      -284.3195 
  18   1.0000     -10.386370      -282.6275 
  19   1.0000     -10.379679      -282.4454 
  20   1.0000     -10.371211      -282.2150 
  21   1.0000     -10.359989      -281.9096 
  22   1.0000     -10.340591      -281.3818 
  23   1.0000     -10.301642      -280.3219 
  24   1.0000     -10.198973      -277.5282 
  25   1.0000      -1.340692       -36.4821 
  26   1.0000      -1.305993       -35.5379 
  27   1.0000      -1.291573       -35.1455 
  28   1.0000      -1.284036       -34.9404 
  29   1.0000      -1.274872       -34.6910 
  30   1.0000      -1.257587       -34.2207 
  31   1.0000      -1.253697       -34.1148 
  32   1.0000      -1.249846       -34.0100 
  33   1.0000      -1.241061       -33.7710 
  34   1.0000      -1.233668       -33.5698 
  35   1.0000      -1.227600       -33.4047 
  36   1.0000      -1.219857       -33.1940 
  37   1.0000      -1.216247       -33.0958 
  38   1.0000      -1.201033       -32.6818 
  39   1.0000      -1.165665       -31.7194 
  40   1.0000      -0.894420       -24.3384 
  41   1.0000      -0.836241       -22.7553 
  42   1.0000      -0.824887       -22.4463 
  43   1.0000      -0.799368       -21.7519 
  44   1.0000      -0.768046       -20.8996 
  45   1.0000      -0.729640       -19.8545 
  46   1.0000      -0.692242       -18.8369 
  47   1.0000      -0.666639       -18.1402 
  48   1.0000      -0.640184       -17.4203 
  49   1.0000      -0.632067       -17.1994 
  50   1.0000      -0.627953       -17.0875 
  51   1.0000      -0.625128       -17.0106 
  52   1.0000      -0.607314       -16.5258 
  53   1.0000      -0.604916       -16.4606 
  54   1.0000      -0.599002       -16.2997 
  55   1.0000      -0.588055       -16.0018 
  56   1.0000      -0.584955       -15.9174 
  57   1.0000      -0.573396       -15.6029 
  58   1.0000      -0.573149       -15.5962 
  59   1.0000      -0.561336       -15.2747 
  60   1.0000      -0.550341       -14.9755 
  61   1.0000      -0.541721       -14.7410 
  62   1.0000      -0.520482       -14.1630 
  63   1.0000      -0.513525       -13.9737 
  64   1.0000      -0.501846       -13.6559 
  65   1.0000      -0.497662       -13.5421 
  66   1.0000      -0.493285       -13.4230 
  67   1.0000      -0.487867       -13.2755 
  68   1.0000      -0.483447       -13.1553 
  69   1.0000      -0.476981       -12.9793 
  70   1.0000      -0.471621       -12.8335 
  71   1.0000      -0.468174       -12.7397 
  72   1.0000      -0.462667       -12.5898 
  73   1.0000      -0.457997       -12.4627 
  74   1.0000      -0.455711       -12.4005 
  75   1.0000      -0.453597       -12.3430 
  76   1.0000      -0.446823       -12.1587 
  77   1.0000      -0.439964       -11.9720 
  78   1.0000      -0.439072       -11.9477 
  79   1.0000      -0.436713       -11.8836 
  80   1.0000      -0.431747       -11.7484 
  81   1.0000      -0.429146       -11.6777 
  82   1.0000      -0.429120       -11.6770 
  83   1.0000      -0.424505       -11.5514 
  84   1.0000      -0.421590       -11.4721 
  85   1.0000      -0.414323       -11.2743 
  86   1.0000      -0.411771       -11.2049 
  87   1.0000      -0.408001       -11.1023 
  88   1.0000      -0.400677       -10.9030 
  89   1.0000      -0.395819       -10.7708 
  90   1.0000      -0.382687       -10.4135 
  91   1.0000      -0.380098       -10.3430 
  92   1.0000      -0.360574        -9.8117 
  93   1.0000      -0.337007        -9.1704 
  94   1.0000      -0.325318        -8.8524 
  95   1.0000      -0.304478        -8.2853 
  96   1.0000      -0.295605        -8.0438 
  97   1.0000      -0.201033        -5.4704 
  98   1.0000      -0.185666        -5.0522 
  99   1.0000      -0.183919        -5.0047 
 100   1.0000      -0.020550        -0.5592 
 101   0.0000       0.010176         0.2769 
 102   0.0000       0.026116         0.7106 
 103   0.0000       0.061537         1.6745 
 104   0.0000       0.073980         2.0131 
 105   0.0000       0.101214         2.7542 
 106   0.0000       0.110859         3.0166 
 107   0.0000       0.120598         3.2816 
 108   0.0000       0.124381         3.3846 
 109   0.0000       0.139912         3.8072 
 110   0.0000       0.153052         4.1648 
 111   0.0000       0.155954         4.2437 

                 SPIN DOWN ORBITALS
  NO   OCC          E(Eh)            E(eV) 
   0   1.0000     -24.735238      -673.0800 
   1   1.0000     -24.734863      -673.0698 
   2   1.0000     -24.733237      -673.0256 
   3   1.0000     -24.727542      -672.8706 
   4   1.0000     -24.725340      -672.8107 
   5   1.0000     -24.723120      -672.7503 
   6   1.0000     -24.719512      -672.6521 
   7   1.0000     -24.717225      -672.5899 
   8   1.0000     -24.713381      -672.4853 
   9   1.0000     -24.709265      -672.3733 
  10   1.0000     -24.704111      -672.2330 
  11   1.0000     -24.694360      -671.9677 
  12   1.0000     -24.685867      -671.7366 
  13   1.0000     -24.662079      -671.0893 
  14   1.0000     -24.657787      -670.9725 
  15   1.0000     -19.008825      -517.2564 
  16   1.0000     -19.006742      -517.1997 
  17   1.0000     -10.448303      -284.3128 
  18   1.0000     -10.385867      -282.6138 
  19   1.0000     -10.378949      -282.4255 
  20   1.0000     -10.370395      -282.1928 
  21   1.0000     -10.359200      -281.8882 
  22   1.0000     -10.339754      -281.3590 
  23   1.0000     -10.300901      -280.3018 
  24   1.0000     -10.193447      -277.3778 
  25   1.0000      -1.340320       -36.4720 
  26   1.0000      -1.304925       -35.5088 
  27   1.0000      -1.290654       -35.1205 
  28   1.0000      -1.283005       -34.9123 
  29   1.0000      -1.273830       -34.6627 
  30   1.0000      -1.256652       -34.1952 
  31   1.0000      -1.253387       -34.1064 
  32   1.0000      -1.249431       -33.9987 
  33   1.0000      -1.240241       -33.7487 
  34   1.0000      -1.232762       -33.5452 
  35   1.0000      -1.226593       -33.3773 
  36   1.0000      -1.218659       -33.1614 
  37   1.0000      -1.214526       -33.0489 
  38   1.0000      -1.200039       -32.6547 
  39   1.0000      -1.163616       -31.6636 
  40   1.0000      -0.885894       -24.1064 
  41   1.0000      -0.829023       -22.5589 
  42   1.0000      -0.822074       -22.3698 
  43   1.0000      -0.796323       -21.6690 
  44   1.0000      -0.765130       -20.8203 
  45   1.0000      -0.727173       -19.7874 
  46   1.0000      -0.690681       -18.7944 
  47   1.0000      -0.665062       -18.0973 
  48   1.0000      -0.637919       -17.3587 
  49   1.0000      -0.631176       -17.1752 
  50   1.0000      -0.626844       -17.0573 
  51   1.0000      -0.624692       -16.9987 
  52   1.0000      -0.605708       -16.4822 
  53   1.0000      -0.603919       -16.4335 
  54   1.0000      -0.597248       -16.2519 
  55   1.0000      -0.587200       -15.9785 
  56   1.0000      -0.582878       -15.8609 
  57   1.0000      -0.572375       -15.5751 
  58   1.0000      -0.571067       -15.5395 
  59   1.0000      -0.560173       -15.2431 
  60   1.0000      -0.548708       -14.9311 
  61   1.0000      -0.538999       -14.6669 
  62   1.0000      -0.514341       -13.9959 
  63   1.0000      -0.510794       -13.8994 
  64   1.0000      -0.501250       -13.6397 
  65   1.0000      -0.497305       -13.5323 
  66   1.0000      -0.492956       -13.4140 
  67   1.0000      -0.487383       -13.2624 
  68   1.0000      -0.482781       -13.1371 
  69   1.0000      -0.476279       -12.9602 
  70   1.0000      -0.471129       -12.8201 
  71   1.0000      -0.467688       -12.7264 
  72   1.0000      -0.462176       -12.5765 
  73   1.0000      -0.457402       -12.4466 
  74   1.0000      -0.454837       -12.3767 
  75   1.0000      -0.453251       -12.3336 
  76   1.0000      -0.445806       -12.1310 
  77   1.0000      -0.439502       -11.9594 
  78   1.0000      -0.438278       -11.9262 
  79   1.0000      -0.435910       -11.8617 
  80   1.0000      -0.431277       -11.7356 
  81   1.0000      -0.428353       -11.6561 
  82   1.0000      -0.427986       -11.6461 
  83   1.0000      -0.423220       -11.5164 
  84   1.0000      -0.420567       -11.4442 
  85   1.0000      -0.411136       -11.1876 
  86   1.0000      -0.408059       -11.1039 
  87   1.0000      -0.406958       -11.0739 
  88   1.0000      -0.399060       -10.8590 
  89   1.0000      -0.394356       -10.7310 
  90   1.0000      -0.380513       -10.3543 
  91   1.0000      -0.378358       -10.2956 
  92   1.0000      -0.358062        -9.7434 
  93   1.0000      -0.334463        -9.1012 
  94   1.0000      -0.321236        -8.7413 
  95   1.0000      -0.301758        -8.2113 
  96   1.0000      -0.271695        -7.3932 
  97   1.0000      -0.182728        -4.9723 
  98   1.0000      -0.180957        -4.9241 
  99   1.0000      -0.178114        -4.8467 
 100   0.0000       0.019358         0.5268 
 101   0.0000       0.027576         0.7504 
 102   0.0000       0.050381         1.3709 
 103   0.0000       0.071452         1.9443 
 104   0.0000       0.081017         2.2046 
 105   0.0000       0.102830         2.7981 
 106   0.0000       0.115942         3.1549 
 107   0.0000       0.124186         3.3793 
 108   0.0000       0.128691         3.5019 
 109   0.0000       0.142520         3.8782 
 110   0.0000       0.156414         4.2562 
*Only the first 10 virtual orbitals were printed.

                    ********************************
                    * MULLIKEN POPULATION ANALYSIS *
                    ********************************

--------------------------------------------
MULLIKEN ATOMIC CHARGES AND SPIN POPULATIONS
--------------------------------------------
   0 C :    0.053347    0.311663
   1 O :   -0.692492    0.103062
   2 O :   -0.692377    0.094936
   3 C :    0.280600    0.120191
   4 C :    0.321317    0.065407
   5 C :    0.295895    0.077180
   6 C :    0.286584    0.079156
   7 C :    0.281523    0.069623
   8 C :    0.300399    0.047045
   9 C :    0.465560    0.018784
  10 F :   -0.237008   -0.001161
  11 F :   -0.254356    0.006066
  12 F :   -0.215086    0.000270
  13 F :   -0.206797    0.002098
  14 F :   -0.199435   -0.000087
  15 F :   -0.193700   -0.000622
  16 F :   -0.193711    0.000141
  17 F :   -0.187092    0.000708
  18 F :   -0.183710    0.002074
  19 F :   -0.188554    0.000270
  20 F :   -0.177053    0.001387
  21 F :   -0.178283    0.000273
  22 F :   -0.162980    0.000187
  23 F :   -0.161610    0.001319
  24 F :   -0.160980    0.000030
Sum of atomic charges         :   -2.0000000
Sum of atomic spin populations:    1.0000000

-----------------------------------------------------
MULLIKEN REDUCED ORBITAL CHARGES AND SPIN POPULATIONS
-----------------------------------------------------
CHARGE
  0 C s       :     3.107687  s :     3.107687
      pz      :     1.032908  p :     2.674051
      px      :     0.922027
      py      :     0.719116
      dz2     :     0.014552  d :     0.148184
      dxz     :     0.011809
      dyz     :     0.041920
      dx2y2   :     0.035263
      dxy     :     0.044640
      f0      :     0.001845  f :     0.016731
      f+1     :     0.000922
      f-1     :     0.002140
      f+2     :     0.002478
      f-2     :     0.001517
      f+3     :     0.003866
      f-3     :     0.003962

  1 O s       :     3.822028  s :     3.822028
      pz      :     1.703718  p :     4.847046
      px      :     1.675997
      py      :     1.467331
      dz2     :     0.003156  d :     0.022205
      dxz     :     0.001537
      dyz     :     0.005016
      dx2y2   :     0.005041
      dxy     :     0.007455
      f0      :     0.000114  f :     0.001213
      f+1     :     0.000069
      f-1     :     0.000174
      f+2     :     0.000111
      f-2     :     0.000177
      f+3     :     0.000348
      f-3     :     0.000219

  2 O s       :     3.815963  s :     3.815963
      pz      :     1.714224  p :     4.852659
      px      :     1.778313
      py      :     1.360122
      dz2     :     0.003124  d :     0.022523
      dxz     :     0.000259
      dyz     :     0.005751
      dx2y2   :     0.008530
      dxy     :     0.004858
      f0      :     0.000115  f :     0.001231
      f+1     :     0.000019
      f-1     :     0.000228
      f+2     :     0.000208
      f-2     :     0.000028
      f+3     :     0.000267
      f-3     :     0.000366

  3 C s       :     3.109334  s :     3.109334
      pz      :     0.774523  p :     2.351144
      px      :     0.952559
      py      :     0.624063
      dz2     :     0.054665  d :     0.234893
      dxz     :     0.036987
      dyz     :     0.051520
      dx2y2   :     0.047439
      dxy     :     0.044283
      f0      :     0.005044  f :     0.024028
      f+1     :     0.003566
      f-1     :     0.003828
      f+2     :     0.003101
      f-2     :     0.001878
      f+3     :     0.003477
      f-3     :     0.003135

  4 C s       :     3.111164  s :     3.111164
      pz      :     0.650778  p :     2.277296
      px      :     0.918546
      py      :     0.707972
      dz2     :     0.059489  d :     0.263317
      dxz     :     0.051993
      dyz     :     0.059350
      dx2y2   :     0.040525
      dxy     :     0.051960
      f0      :     0.003873  f :     0.026906
      f+1     :     0.004719
      f-1     :     0.007602
      f+2     :     0.002148
      f-2     :     0.002511
      f+3     :     0.003487
      f-3     :     0.002566

  5 C s       :     3.145314  s :     3.145314
      pz      :     0.599627  p :     2.253590
      px      :     0.905417
      py      :     0.748546
      dz2     :     0.070671  d :     0.277983
      dxz     :     0.056150
      dyz     :     0.054492
      dx2y2   :     0.043589
      dxy     :     0.053081
      f0      :     0.004969  f :     0.027218
      f+1     :     0.004143
      f-1     :     0.006070
      f+2     :     0.003101
      f-2     :     0.004202
      f+3     :     0.002526
      f-3     :     0.002207

  6 C s       :     3.139352  s :     3.139352
      pz      :     0.581570  p :     2.265458
      px      :     0.912272
      py      :     0.771616
      dz2     :     0.074941  d :     0.281336
      dxz     :     0.056978
      dyz     :     0.051509
      dx2y2   :     0.044178
      dxy     :     0.053730
      f0      :     0.005927  f :     0.027269
      f+1     :     0.003714
      f-1     :     0.004580
      f+2     :     0.003977
      f-2     :     0.005049
      f+3     :     0.002075
      f-3     :     0.001947

  7 C s       :     3.141840  s :     3.141840
      pz      :     0.583266  p :     2.266525
      px      :     0.924327
      py      :     0.758932
      dz2     :     0.069016  d :     0.282749
      dxz     :     0.057672
      dyz     :     0.057422
      dx2y2   :     0.043820
      dxy     :     0.054819
      f0      :     0.004726  f :     0.027363
      f+1     :     0.004173
      f-1     :     0.006468
      f+2     :     0.003114
      f-2     :     0.004144
      f+3     :     0.002593
      f-3     :     0.002145

  8 C s       :     3.124255  s :     3.124255
      pz      :     0.613289  p :     2.273533
      px      :     0.931966
      py      :     0.728279
      dz2     :     0.055430  d :     0.274330
      dxz     :     0.056507
      dyz     :     0.066918
      dx2y2   :     0.041177
      dxy     :     0.054298
      f0      :     0.003787  f :     0.027483
      f+1     :     0.004806
      f-1     :     0.007971
      f+2     :     0.002347
      f-2     :     0.002327
      f+3     :     0.003742
      f-3     :     0.002503

  9 C s       :     3.028555  s :     3.028555
      pz      :     0.648471  p :     2.128676
      px      :     0.803958
      py      :     0.676247
      dz2     :     0.063263  d :     0.337466
      dxz     :     0.065789
      dyz     :     0.080859
      dx2y2   :     0.062496
      dxy     :     0.065059
      f0      :     0.004860  f :     0.039744
      f+1     :     0.007748
      f-1     :     0.008657
      f+2     :     0.004360
      f-2     :     0.003051
      f+3     :     0.007350
      f-3     :     0.003718

 10 F s       :     3.902674  s :     3.902674
      pz      :     1.908508  p :     5.319427
      px      :     1.898352
      py      :     1.512568
      dz2     :     0.002041  d :     0.014294
      dxz     :     0.000325
      dyz     :     0.002714
      dx2y2   :     0.005444
      dxy     :     0.003769
      f0      :     0.000046  f :     0.000614
      f+1     :     0.000014
      f-1     :     0.000122
      f+2     :     0.000070
      f-2     :     0.000017
      f+3     :     0.000163
      f-3     :     0.000181

 11 F s       :     3.895905  s :     3.895905
      pz      :     1.546571  p :     5.344603
      px      :     1.915129
      py      :     1.882904
      dz2     :     0.005788  d :     0.013275
      dxz     :     0.003319
      dyz     :     0.003225
      dx2y2   :     0.000495
      dxy     :     0.000449
      f0      :     0.000199  f :     0.000572
      f+1     :     0.000134
      f-1     :     0.000160
      f+2     :     0.000037
      f-2     :     0.000038
      f+3     :     0.000003
      f-3     :     0.000003

 12 F s       :     3.908029  s :     3.908029
      pz      :     1.823740  p :     5.290739
      px      :     1.917543
      py      :     1.549456
      dz2     :     0.001945  d :     0.015635
      dxz     :     0.000764
      dyz     :     0.005114
      dx2y2   :     0.004666
      dxy     :     0.003147
      f0      :     0.000077  f :     0.000683
      f+1     :     0.000004
      f-1     :     0.000117
      f+2     :     0.000185
      f-2     :     0.000061
      f+3     :     0.000105
      f-3     :     0.000134

 13 F s       :     3.903581  s :     3.903581
      pz      :     1.482378  p :     5.287114
      px      :     1.916234
      py      :     1.888502
      dz2     :     0.007947  d :     0.015425
      dxz     :     0.003506
      dyz     :     0.003196
      dx2y2   :     0.000394
      dxy     :     0.000382
      f0      :     0.000337  f :     0.000677
      f+1     :     0.000152
      f-1     :     0.000155
      f+2     :     0.000013
      f-2     :     0.000017
      f+3     :     0.000001
      f-3     :     0.000002

 14 F s       :     3.910608  s :     3.910608
      pz      :     1.719904  p :     5.272236
      px      :     1.912180
      py      :     1.640153
      dz2     :     0.002551  d :     0.015903
      dxz     :     0.001542
      dyz     :     0.006313
      dx2y2   :     0.003046
      dxy     :     0.002451
      f0      :     0.000076  f :     0.000688
      f+1     :     0.000013
      f-1     :     0.000185
      f+2     :     0.000192
      f-2     :     0.000101
      f+3     :     0.000058
      f-3     :     0.000063

 15 F s       :     3.902692  s :     3.902692
      pz      :     1.526022  p :     5.274642
      px      :     1.914734
      py      :     1.833886
      dz2     :     0.006440  d :     0.015683
      dxz     :     0.003125
      dyz     :     0.004635
      dx2y2   :     0.000692
      dxy     :     0.000792
      f0      :     0.000226  f :     0.000683
      f+1     :     0.000106
      f-1     :     0.000232
      f+2     :     0.000052
      f-2     :     0.000058
      f+3     :     0.000005
      f-3     :     0.000005

 16 F s       :     3.913402  s :     3.913402
      pz      :     1.606613  p :     5.263602
      px      :     1.909610
      py      :     1.747379
      dz2     :     0.004376  d :     0.016019
      dxz     :     0.002485
      dyz     :     0.006066
      dx2y2   :     0.001584
      dxy     :     0.001508
      f0      :     0.000115  f :     0.000689
      f+1     :     0.000053
      f-1     :     0.000258
      f+2     :     0.000125
      f-2     :     0.000098
      f+3     :     0.000020
      f-3     :     0.000019

 17 F s       :     3.905702  s :     3.905702
      pz      :     1.619970  p :     5.264887
      px      :     1.910114
      py      :     1.734803
      dz2     :     0.004056  d :     0.015818
      dxz     :     0.002382
      dyz     :     0.006116
      dx2y2   :     0.001672
      dxy     :     0.001594
      f0      :     0.000107  f :     0.000684
      f+1     :     0.000048
      f-1     :     0.000250
      f+2     :     0.000133
      f-2     :     0.000100
      f+3     :     0.000024
      f-3     :     0.000023

 18 F s       :     3.907770  s :     3.907770
      pz      :     1.727866  p :     5.259367
      px      :     1.909937
      py      :     1.621564
      dz2     :     0.002440  d :     0.015889
      dxz     :     0.001442
      dyz     :     0.006289
      dx2y2   :     0.003207
      dxy     :     0.002511
      f0      :     0.000076  f :     0.000684
      f+1     :     0.000010
      f-1     :     0.000173
[...]
      f+2     :     0.000007
      f-2     :    -0.000001
      f+3     :     0.000000
      f-3     :     0.000006

 16 F s       :     0.002816  s :     0.002816
      pz      :     0.009316  p :     0.007825
      px      :    -0.000435
      py      :    -0.001055
      dz2     :     0.000581  d :     0.001313
      dxz     :    -0.000065
      dyz     :     0.000028
      dx2y2   :     0.000785
      dxy     :    -0.000017
      f0      :     0.000013  f :     0.000046
      f+1     :    -0.000001
      f-1     :     0.000016
      f+2     :     0.000009
      f-2     :    -0.000002
      f+3     :     0.000000
      f-3     :     0.000010

 17 F s       :     0.003481  s :     0.003481
      pz      :     0.010132  p :     0.007907
      px      :    -0.000391
      py      :    -0.001834
      dz2     :     0.000545  d :     0.001207
      dxz     :    -0.000067
      dyz     :     0.000070
      dx2y2   :     0.000669
      dxy     :    -0.000010
      f0      :     0.000010  f :     0.000042
      f+1     :    -0.000001
      f-1     :     0.000020
      f+2     :     0.000005
      f-2     :    -0.000002
      f+3     :     0.000001
      f-3     :     0.000009

 18 F s       :     0.003784  s :     0.003784
      pz      :     0.012317  p :     0.009922
      px      :    -0.000387
      py      :    -0.002008
      dz2     :     0.000659  d :     0.001370
      dxz     :    -0.000069
      dyz     :     0.000097
      dx2y2   :     0.000723
      dxy     :    -0.000039
      f0      :     0.000011  f :     0.000047
      f+1     :    -0.000001
      f-1     :     0.000024
      f+2     :     0.000006
      f-2     :    -0.000003
      f+3     :    -0.000000
      f-3     :     0.000011

 19 F s       :     0.003164  s :     0.003164
      pz      :     0.011227  p :     0.009503
      px      :    -0.000440
      py      :    -0.001284
      dz2     :     0.000720  d :     0.001447
      dxz     :    -0.000070
      dyz     :     0.000029
      dx2y2   :     0.000796
      dxy     :    -0.000028
      f0      :     0.000016  f :     0.000051
      f+1     :    -0.000001
      f-1     :     0.000018
      f+2     :     0.000010
      f-2     :    -0.000003
      f+3     :    -0.000000
      f-3     :     0.000011

 20 F s       :     0.002565  s :     0.002565
      pz      :     0.007539  p :     0.005897
      px      :    -0.000197
      py      :    -0.001445
      dz2     :     0.000406  d :     0.000935
      dxz     :    -0.000013
      dyz     :     0.000086
      dx2y2   :     0.000459
      dxy     :    -0.000003
      f0      :     0.000007  f :     0.000039
      f+1     :     0.000001
      f-1     :     0.000018
      f+2     :     0.000003
      f-2     :     0.000001
      f+3     :     0.000001
      f-3     :     0.000008

 21 F s       :     0.002341  s :     0.002341
      pz      :     0.007175  p :     0.005667
      px      :    -0.000255
      py      :    -0.001253
      dz2     :     0.000453  d :     0.000953
      dxz     :    -0.000019
      dyz     :     0.000043
      dx2y2   :     0.000479
      dxy     :    -0.000004
      f0      :     0.000010  f :     0.000040
      f+1     :     0.000001
      f-1     :     0.000015
      f+2     :     0.000005
      f-2     :     0.000001
      f+3     :     0.000001
      f-3     :     0.000007

 22 F s       :     0.000101  s :     0.000101
      pz      :     0.000568  p :     0.001446
      px      :     0.000638
      py      :     0.000240
      dz2     :     0.000130  d :     0.000355
      dxz     :    -0.000046
      dyz     :     0.000020
      dx2y2   :     0.000269
      dxy     :    -0.000020
      f0      :     0.000005  f :     0.000015
      f+1     :    -0.000001
      f-1     :     0.000003
      f+2     :     0.000004
      f-2     :    -0.000001
      f+3     :     0.000002
      f-3     :     0.000002

 23 F s       :     0.003337  s :     0.003337
      pz      :    -0.000029  p :     0.019549
      px      :     0.019706
      py      :    -0.000128
      dz2     :     0.000253  d :     0.001715
      dxz     :     0.000014
      dyz     :     0.000004
      dx2y2   :     0.001153
      dxy     :     0.000291
      f0      :     0.000000  f :     0.000070
      f+1     :     0.000014
      f-1     :     0.000001
      f+2     :     0.000000
      f-2     :     0.000000
      f+3     :     0.000010
      f-3     :     0.000044

 24 F s       :     0.000081  s :     0.000081
      pz      :     0.000442  p :     0.001407
      px      :     0.000511
      py      :     0.000454
      dz2     :     0.000130  d :     0.000362
      dxz     :    -0.000049
      dyz     :     0.000031
      dx2y2   :     0.000266
      dxy     :    -0.000015
      f0      :     0.000006  f :     0.000016
      f+1     :    -0.000001
      f-1     :     0.000002
      f+2     :     0.000005
      f-2     :    -0.000001
      f+3     :     0.000002
      f-3     :     0.000002



                      *****************************
                      * MAYER POPULATION ANALYSIS *
                      *****************************

  NA   - Mulliken gross atomic population
  ZA   - Total nuclear charge
  QA   - Mulliken gross atomic charge
  VA   - Mayer's total valence
  BVA  - Mayer's bonded valence
  FA   - Mayer's free valence

  ATOM       NA         ZA         QA         VA         BVA        FA
  0 C      5.8609     6.0000     0.1391     4.6813     4.6813     0.0001
  1 O      8.4912     8.0000    -0.4912     1.9527     1.9527     0.0000
  2 O      8.4987     8.0000    -0.4987     1.9432     1.9431     0.0000
  3 C      5.6507     6.0000     0.3493     3.8622     3.8616     0.0006
  4 C      5.7142     6.0000     0.2858     4.0217     4.0171     0.0046
  5 C      5.7067     6.0000     0.2933     4.0646     4.0392     0.0254
  6 C      5.7460     6.0000     0.2540     4.0486     3.9691     0.0795
  7 C      5.7757     6.0000     0.2243     4.0405     3.9504     0.0902
  8 C      5.7181     6.0000     0.2819     4.1195     4.0868     0.0327
  9 C      5.5587     6.0000     0.4413     4.5171     4.5094     0.0077
 10 F      9.2256     9.0000    -0.2256     1.0517     1.0517     0.0000
 11 F      9.2304     9.0000    -0.2304     1.0427     1.0427     0.0000
 12 F      9.2106     9.0000    -0.2106     1.0802     1.0802     0.0000
 13 F      9.2151     9.0000    -0.2151     1.0788     1.0788     0.0000
 14 F      9.2207     9.0000    -0.2207     1.0556     1.0556     0.0000
 15 F      9.2220     9.0000    -0.2220     1.0584     1.0583     0.0000
 16 F      9.2357     9.0000    -0.2357     1.0271     1.0269     0.0002
 17 F      9.2412     9.0000    -0.2412     1.0186     1.0185     0.0002
 18 F      9.2452     9.0000    -0.2452     1.0140     1.0138     0.0002
 19 F      9.2402     9.0000    -0.2402     1.0221     1.0219     0.0002
 20 F      9.2189     9.0000    -0.2189     1.0544     1.0543     0.0001
 21 F      9.2180     9.0000    -0.2180     1.0565     1.0564     0.0001
 22 F      9.1805     9.0000    -0.1805     1.1171     1.1171     0.0000
 23 F      9.1944     9.0000    -0.1944     1.0848     1.0844     0.0003
 24 F      9.1807     9.0000    -0.1807     1.1168     1.1168     0.0000

  Mayer bond orders larger than 0.100000
B(  0-C ,  1-O ) :   1.8867 B(  0-C ,  2-O ) :   1.8773 B(  0-C ,  3-C ) :   0.8459 
B(  3-C ,  4-C ) :   0.9056 B(  3-C , 10-F ) :   1.0422 B(  3-C , 11-F ) :   1.0260 
B(  4-C ,  5-C ) :   0.8881 B(  4-C , 12-F ) :   1.0551 B(  4-C , 13-F ) :   1.0411 
B(  5-C ,  6-C ) :   0.9053 B(  5-C , 14-F ) :   1.0250 B(  5-C , 15-F ) :   1.0255 
B(  6-C ,  7-C ) :   0.9175 B(  6-C , 16-F ) :   0.9957 B(  6-C , 17-F ) :   0.9860 
B(  7-C ,  8-C ) :   0.9241 B(  7-C , 18-F ) :   0.9818 B(  7-C , 19-F ) :   0.9879 
B(  8-C ,  9-C ) :   0.9628 B(  8-C , 20-F ) :   1.0222 B(  8-C , 21-F ) :   1.0226 
B(  9-C , 22-F ) :   1.1338 B(  9-C , 23-F ) :   1.0825 B(  9-C , 24-F ) :   1.1331 


-------
TIMINGS
-------

Total SCF time: 0 days 0 hours 0 min 38 sec 

Total time                  ....      38.958 sec
Sum of individual times     ....      37.799 sec  ( 97.0%)

SCF preparation             ....       1.195 sec  (  3.1%)
Fock matrix formation       ....      32.467 sec  ( 83.3%)
  Startup                   ....       0.143 sec  (  0.4% of F)
  Split-RI-J                ....       1.846 sec  (  5.7% of F)
  Chain of spheres X        ....      24.045 sec  ( 74.1% of F)
  XC integration            ....       4.523 sec  ( 13.9% of F)
    XC Preparation          ....       0.000 sec  (  0.0% of XC)
    Basis function eval.    ....       0.417 sec  (  9.2% of XC)
    Density eval.           ....       1.017 sec  ( 22.5% of XC)
    XC-Functional eval.     ....       0.038 sec  (  0.8% of XC)
    XC-Potential eval.      ....       1.148 sec  ( 25.4% of XC)
  CPCM terms                ....       1.550 sec  (  4.8% of F)
Diagonalization             ....       0.000 sec  (  0.0%)
Density matrix formation    ....       0.410 sec  (  1.1%)
Total Energy calculation    ....       0.218 sec  (  0.6%)
Population analysis         ....       0.334 sec  (  0.9%)
Orbital Transformation      ....       0.445 sec  (  1.1%)
Orbital Orthonormalization  ....       0.000 sec  (  0.0%)
DIIS solution               ....       0.566 sec  (  1.5%)
SOSCF solution              ....       2.164 sec  (  5.6%)
Finished LeanSCF after  39.2 sec

Maximum memory used throughout the entire LEANSCF-calculation: 109.8 MB


-------------------------------------------------------------------------------
                          DFT DISPERSION CORRECTION                            
                                                                               
                              DFTD3 V3.1  Rev 1                                
                          USING Becke-Johnson damping                          
-------------------------------------------------------------------------------
The B3LYP functional is recognized
Active option DFTDOPT                   ...         4   

molecular C6(AA) [au] = 6622.002154 


            DFT-D V3
 parameters
 s6 scaling factor         :     1.0000 
 a1 scaling factor         :     0.3981 
 s8 scaling factor         :     1.9889 
 a2 scaling factor         :     4.4211 
 ad hoc parameters k1-k3   :    16.0000     1.3333    -4.0000 

 Edisp/kcal,au: -26.694806325894  -0.042540877201 
 E6   /kcal   : -12.698704997 
 E8   /kcal   : -13.996101329 
 % E8         :  52.430053838 

-------------------------   ----------------
Dispersion correction           -0.042540877
-------------------------   ----------------


-------------------------   --------------------
FINAL SINGLE POINT ENERGY     -1953.234513804677
-------------------------   --------------------

                                *** OPTIMIZATION RUN DONE ***



           ************************************************************
           *        Program running with 20 parallel MPI-processes    *
           *              working on a common directory               *
           ************************************************************

------------------------------------------------------------------------------
                              ORCA PROPERTY CALCULATIONS
------------------------------------------------------------------------------

GBWName                                 ... rf_mecn_opt_B3L_D_A.gbw
Number of atoms                         ...     25
Number of basis functions               ...    775
Max core memory                         ...   8000 MB

Electric properties:
Dipole moment                           ... YES
Quadrupole moment                       ...  NO
Static polarizability (Dipole/Dipole)   ...  NO
Static polarizability (Dipole/Quad.)    ...  NO
Static polarizability (Quad./Quad.)     ...  NO
Static polarizability (Velocity)        ...  NO

Atomic electric properties:
Dipole moment                           ...  NO
Quadrupole moment                       ...  NO
Static polarizability                   ...  NO

Choice of electric origin               ... Center of mass
Position of electric origin             ...    -0.115360    -0.036133    -0.003941

General magnetic properties:
Magnetizability                         ...  NO

EPR properties:
g-Tensor (aka g-matrix)                 ...  NO
Zero-Field splitting spin-orbit         ...  NO
Zero-field splitting spin-spin          ...  NO
Hyperfine couplings                     ...  NO (   0 nuclei)
Quadrupole couplings                    ...  NO (   0 nuclei)
Contact density                         ...  NO (   0 nuclei)

NMR properties:
Chemical shifts                         ...  NO (   0 nuclei)
Spin-rotation constants                 ...  NO (   0 nuclei)
Spin-spin couplings                     ...  NO (   0 nuclei,    0 pairs)

Choice of magnetic origin               ... GIAO
Position of magnetic origin             ...     0.000000     0.000000     0.000000

Properties with geometric perturbations:
SCF Hessian                             ...  NO
IR spectrum                             ...  NO
VCD spectrum                            ...  NO
X-ray spectroscopy properties:
SCF XES/XAS/RIXS spectra                ...  NO


-------------
DIPOLE MOMENT
-------------

Method             : SCF
Type of density    : Electron Density
Multiplicity       :   2
Irrep              :   0
Energy             : -1953.1919729274763995 Eh
Relativity type    : 
Basis              : AO
                                X                 Y                 Z
Electronic contribution:    -17.580779200      -1.624577252       1.346422010
Nuclear contribution   :     10.215868114       0.852610083      -0.763381339
                        -----------------------------------------
Total Dipole Moment    :     -7.364911086      -0.771967169       0.583040671
                        -----------------------------------------
Magnitude (a.u.)       :      7.428175082
Magnitude (Debye)      :     18.880920566



--------------------
Rotational spectrum 
--------------------
 
Rotational constants in cm-1:             0.021730             0.003375             0.003347 
Rotational constants in MHz :           651.455334           101.183285           100.331392 

Dipole components along the rotational axes: 
x,y,z [a.u.] :    -7.358419    -0.822626     0.595600 
x,y,z [Debye]:   -18.703615    -2.090950     1.513896 

 

Dipole moment calculation done in   0.0 sec 

Maximum memory used throughout the entire PROP-calculation: 57.4 MB

--------------------------------
SUGGESTED CITATIONS FOR THIS RUN
--------------------------------

Below you find a list of papers that are relevant to this ORCA run
We neither can nor want to force you to cite these papers, but we appreciate if you do
You receive ORCA, which is the product of decades of hard work by many enthusiastic individuals, for free
The only thing we kindly ask in return is that you cite our papers,
We deeply appreciate it, if you show your appreciation for ORCA by not just citing the generic ORCA reference.

Please note that relegating all ORCA citations to the supporting information does *not* help us.
SI sections are not indexed - citations you put there will not count into any citation statistics
But we need these citations in order to attract the funding resources that allow us to do what we are doing

Therefore, if you are a happy ORCA user, please consider citing a few of the papers listed below in the main body of your paper

In addition to the list printed below, the program has created the file rf_mecn_opt_B3L_D_A.bibtex that contains the list in bibtex format
You can import this file easily into all common literature databanks and citation aid programs


List of essential papers. We consider these as the minimum necessary citations

  1. Neese,F.
     Software update: the ORCA program system, version 5.0
     WIRES Comput. Molec. Sci., 2022 12(1)e1606
     doi.org/10.1002/wcms.1606

List of papers to cite with high priority. The work reported in these papers was absolutely
necessary for this run to complete.
Our perspective: the developers of density functionals and basis sets usually get cited in chemistry papers
Good! But without the algorithms to do something with them, the functionals or basis sets would not do anything.
Hence, in our opinion, the algorithm design and method developments papers are equally worthy of getting cited

  1. Neese,F.
     An improvement of the resolution of the identity approximation for the formation of the Coulomb matrix
     J. Comp. Chem., 2003 24(14)1740-1747
     doi.org/10.1002/jcc.10318
  2. Neese,F.; Wennmohs,F.; Hansen,A.; Becker,U.
     Efficient, approximate and parallel Hartree-Fock and hybrid DFT calculations. A 'chain-of-spheres' algorithm for the Hartree-Fock exchange
     Chem. Phys., 2009 356(1-3)98-109
     doi.org/10.1016/j.chemphys.2008.10.036
  3. Garcia-Rates,M.; Neese,F.
     Effect of the Solute Cavity on the Solvation Energy and its Derivatives within the Framework of the Gaussian Charge Scheme
     J. Comput. Chem., 2020 41 922-939
     doi.org/10.1002/jcc.26139
  4. Helmich-Paris,B.; de Souza,B.; Neese,F.; Izsák,R.
     An improved chain of spheres for exchange algorithm
     J. Chem. Phys., 2021 155 104109
     doi.org/doi: 10.1063/5.0058766.
  5. Neese,F.
     The SHARK Integral Generation and Digestion System
     J. Comp. Chem., 2022  1-16
     doi.org/10.1002/jcc.26942
  6. Grimme,S.; Antony,J.; Ehrlich,S.; Krieg,H.
     A consistent and accurate ab initio parametrization of density functional dispersion correction (DFT-D) for the 94 elements H-Pu
     J. Chem. Phys., 2010 132 154104
     doi.org/10.1063/1.3382344
  7. Grimme,S.; Ehrlich,S.; Goerigk,L.
     Effect of the damping function in dispersion corrected density functional theory
     J. Comput. Chem., 2011 32(7)1456-1465
     doi.org/10.1002/jcc.21759

List of suggested additional citations. These are papers that are important in the 'surrounding' of 
of this run, or papers that preceded the highly important papers. If you like your results we are grateful for a citation.

  1. Izsak,R.; Neese,F.
     An overlap fitted chain of spheres exchange method
     J. Chem. Phys., 2011 135 144105
     doi.org/10.1063/1.3646921
  2. Izsak,R.; Hansen,A.; Neese,F.
     The resolution of identity and chain of spheres approximations for the LPNO-CCSD singles Fock term
     Molec. Phys., 2012 110 2413-2417
     doi.org/10.1080/00268976.2012.687466
  3. Neese,F.
     The ORCA program system
     WIRES Comput. Molec. Sci., 2012 2(1)73-78
     doi.org/10.1002/wcms.81
  4. Izsak,R.; Neese,F.; Klopper,W.
     Robust fitting techniques in the chain of spheres approximation to the Fock exchange: The role of the complementary space
     J. Chem. Phys., 2013 139 
     doi.org/10.1063/1.4819264
  5. Neese,F.
     Software update: the ORCA program system, version 4.0
     WIRES Comput. Molec. Sci., 2018 8(1)1-6
     doi.org/10.1002/wcms.1327
  6. Neese,F.; Wennmohs,F.; Becker,U.; Riplinger,C.
     The ORCA quantum chemistry program package
     J. Chem. Phys., 2020 152 Art. No. L224108
     doi.org/10.1063/5.0004608

List of optional additional citations

  1. Neese,F.
     Approximate second-order SCF convergence for spin unrestricted wavefunctions
     Chem. Phys. Lett., 2000 325(1-3)93-98
     doi.org/10.1016/s0009-2614(00)00662-x

Timings for individual modules:

Sum of individual times          ...     1490.804 sec (=  24.847 min)
Startup calculation              ...       54.949 sec (=   0.916 min)   3.7 %
SCF iterations                   ...     1117.654 sec (=  18.628 min)  75.0 %
Property calculations            ...        0.794 sec (=   0.013 min)   0.1 %
SCF Gradient evaluation          ...      317.142 sec (=   5.286 min)  21.3 %
Geometry relaxation              ...        0.265 sec (=   0.004 min)   0.0 %
                             ****ORCA TERMINATED NORMALLY****
TOTAL RUN TIME: 0 days 0 hours 25 minutes 0 seconds 504 msec
