
                                 *****************
                                 * O   R   C   A *
                                 *****************

                                            #,                                       
                                            ###                                      
                                            ####                                     
                                            #####                                    
                                            ######                                   
                                           ########,                                 
                                     ,,################,,,,,                         
                               ,,#################################,,                 
                          ,,##########################################,,             
                       ,#########################################, ''#####,          
                    ,#############################################,,   '####,        
                  ,##################################################,,,,####,       
                ,###########''''           ''''###############################       
              ,#####''   ,,,,##########,,,,          '''####'''          '####       
            ,##' ,,,,###########################,,,                        '##       
           ' ,,###''''                  '''############,,,                           
         ,,##''                                '''############,,,,        ,,,,,,###''
      ,#''                                            '''#######################'''  
     '                                                          ''''####''''         
             ,#######,   #######,   ,#######,      ##                                
            ,#'     '#,  ##    ##  ,#'     '#,    #''#        ,####,   ,####,        
            ##       ##  ##   ,#'  ##            #'  '#       #'       #'  '#        
            ##       ##  #######   ##           ,######,      #####,   #    #        
            '#,     ,#'  ##    ##  '#,     ,#' ,#      #,     #,   #   #,  ,#        
             '#######'   ##     ##  '#######'  #'      '#     '####' # '####'        



                #########################################################
                #                        -***-                          #
                #          Department of theory and spectroscopy        #
                #                                                       #
                #                      Frank Neese                      #
                #                                                       #
                #     Directorship, Architecture, Infrastructure        #
                #                    SHARK, DRIVERS                     #
                #        Core code/Algorithms in most modules           #
                #                                                       #
                #        Max Planck Institute fuer Kohlenforschung      #
                #                Kaiser Wilhelm Platz 1                 #
                #                 D-45470 Muelheim/Ruhr                 #
                #                      Germany                          #
                #                                                       #
                #                  All rights reserved                  #
                #                        -***-                          #
                #########################################################


                         Program Version 6.0.1  -  RELEASE   -


 With contributions from (in alphabetic order):
[Max-Planck-Institut fuer Kohlenforschung]                               
  Daniel Aravena         : Magnetic Suceptibility                        
  Michael Atanasov       : Ab Initio Ligand Field Theory (pilot matlab implementation)
  Alexander A. Auer      : GIAO ZORA, VPT2 properties, NMR spectrum      
  Ute Becker             : All parallelization in ORCA, NUMFREQ, NUMCALC 
  Giovanni Bistoni       : ED, misc. LED, open-shell LED, HFLD           
  Martin Brehm           : Molecular dynamics                            
  Dmytro Bykov           : pre 5.0 version of the SCF Hessian            
  Marcos Casanova-Páez   : Triplet and SCS-CIS(D). UHF-(DLPNO)-IP/EA/STEOM-CCSD. UHF-CVS-IP/STEOM-CCSD   
  Vijay G. Chilkuri      : MRCI spin determinant printing, contributions to CSF-ICE 
  Pauline Colinet        : FMM embedding                                 
  Dipayan Datta          : RHF DLPNO-CCSD density                        
  Achintya Kumar Dutta   : EOM-CC, STEOM-CC                              
  Nicolas Foglia         : Exact transition moments, OPA infrastructure, MCD improvements    
  Dmitry Ganyushin       : Spin-Orbit,Spin-Spin,Magnetic field MRCI      
  Miquel Garcia-Rates    : C-PCM and meta-GGA Hessian, CCSD/C-PCM, Gaussian charge scheme 
  Tiago L. C. Gouveia    : GS-ROHF, GS-ROCIS                             
  Yang Guo               : DLPNO-NEVPT2, F12-NEVPT2, CIM, IAO-localization        
  Andreas Hansen         : Spin unrestricted coupled pair/coupled cluster methods 
  Ingolf Harden          : AUTO-CI MPn and infrastructure                
  Benjamin Helmich-Paris : MC-RPA, TRAH-(SCF,CASSCF), AVAS, COSX integrals, SCF dyn. polar. 
  Lee Huntington         : MR-EOM, pCC                                   
  Robert Izsak           : Overlap fitted RIJCOSX, COSX-SCS-MP3, EOM     
  Riya Kayal             : Wick's Theorem for AUTO-CI, AUTO-CI UHF-CCSDT 
  Emily Kempfer          : AUTO-CI, RHF CISDT and CCSDT                  
  Christian Kollmar      : KDIIS, OOCD, Brueckner-CCSD(T), CCSD density, CASPT2, CASPT2-K, improved NEVPT2 
  Axel Koslowski         : Symmetry handling                             
  Simone Kossmann        : meta-GGA functionals, TD-DFT gradient, OOMP2, (MP2 Hessian; deprecated post 5.0) 
  Lucas Lang             : DCDCAS                                        
  Marvin Lechner         : AUTO-CI (C++ implementation), FIC-MRCC        
  Spencer Leger          : CASSCF response                               
  Dagmar Lenk            : GEPOL surface, SMD, ORCA-2-JSON               
  Dimitrios Liakos       : Extrapolation schemes; Compound Job, initial MDCI parallelization 
  Dimitrios Manganas     : Further ROCIS development; embedding schemes. LFT, Crystal Embedding 
  Dimitrios Pantazis     : SARC Basis sets                               
  Anastasios Papadopoulos: AUTO-CI, single reference methods and gradients 
  Taras Petrenko         : pre 6.0 DFT Hessian and TD-DFT gradient, (ASA, deprecated), ECA, 1-Electron XAS/XES, NRVS 
  Peter Pinski           : DLPNO-MP2, DLPNO-MP2 Gradient                 
  Christoph Reimann      : Effective Core Potentials                     
  Marius Retegan         : Local ZFS, SOC                                
  Christoph Riplinger    : Optimizer, TS searches, QM/MM, DLPNO-CCSD(T), (RO)-DLPNO pert. Triples 
  Michael Roemelt        : Original ROCIS implementation                 
  Masaaki Saitow         : Open-shell DLPNO-CCSD energy and density      
  Barbara Sandhoefer     : DKH picture change effects                    
  Kantharuban Sivalingam : CASSCF convergence/infrastructure, NEVPT2 and variants, FIC-MRCI 
  Bernardo de Souza      : ESD, SOC TD-DFT                               
  Georgi L. Stoychev     : AutoAux, RI-MP2 NMR, DLPNO-MP2 response, X2C  
  Van Anh Tran           : RI-MP2 g-tensors                              
  Willem Van den Heuvel  : Paramagnetic NMR                              
  Zikuan Wang            : NOTCH, Electric field optimization            
  Frank Wennmohs         : Technical directorship and infrastructure     
  Hang Xu                : AUTO-CI-Response properties                   
                                                                         
[FACCTs GmbH]                                                            
  Markus Bursch, Miquel Garcia-Rates, Christoph Riplinger, Bernardo de Souza, Georgi L. Stoychev 
                                                                 
  APM, Basis sets (HGBS, AHGBS, def-TZVP (Ac-Lr), def2-XVPD (La-Lu)), CI-OPT, improved COSX, DLPNO-Multilevel,           
  DOCKER, DRACO, updates on ESD, GOAT, IRC, LR-CPCM, MBIS, meta-GGA TD-DFT gradient, ML-optimized integration grids, 
  MM, NACMEs, nearIR, NEB, NEB-TS, NL-DFT gradient (VV10), 2- and 3-layer-ONIOM, interface openCOSMO-RS, QMMM,   
  Crystal-QMMM, SF, symmetry and pop. for TD-DFT, r2SCAN hybrids, SOLVATOR                                   
                                                                         
[Other institutions]                                                     
  V. Asgeirsson          : NEB                                           
  Christoph Bannwarth    : sTDA-DFT, sTD-DFT, PBEh-3c, B97-3c, D3        
  Sebastian Ehlert       : rSCAN, r2SCAN, r2SCAN-3c, D4, dhf basis sets  
  Marvin Friede          : D4 for Fr, Ra, Ac-Lr                          
  Lars Goerigk           : TD-DFT with DH, B97 family of functionals     
  Stefan Grimme          : VdW corrections, initial TS optimization, DFT functionals, gCP, sTDA/sTD-DF 
  Waldemar Hujo          : DFT-NL                                        
  H. Jonsson             : NEB                                           
  Holger Kruse           : gCP                                           
  Marcel Mueller         : wB97X-3c, vDZP basis set                      
  Hagen Neugebauer       : wr2SCAN                                       
  Tobias Risthaus        : range-separated hybrid DFT                    
  Lukas Wittmann         : regularized MP2, r2SCAN double-hybrids, wr2SCAN        
                                                                         
We gratefully acknowledge several colleagues who have allowed us to      
interface, adapt or use parts of their codes:                            
  Ed Valeev, F. Pavosevic, A. Kumar             : LibInt (2-el integral package), F12 methods 
  Garnet Chan, S. Sharma, J. Yang, R. Olivares  : DMRG                   
  Ulf Ekstrom                                   : XCFun DFT Library      
  Mihaly Kallay                                 : mrcc  (arbitrary order and MRCC methods)
  Frank Weinhold                                : gennbo (NPA and NBO analysis)           
  Simon Mueller                                 : openCOSMO-RS                            
  Christopher J. Cramer and Donald G. Truhlar   : smd solvation model                     
  S Lehtola, MJT Oliveira, MAL Marques          : LibXC Library                           
  Liviu Ungur et al                             : ANISO software                          


 Your calculation uses the libint2 library for the computation of 2-el integrals
 For citations please refer to: http://libint.valeyev.net

 Your ORCA version has been built with support for libXC version: 6.2.2
 For citations please refer to: https://libxc.gitlab.io

 This ORCA versions uses:
   CBLAS   interface :  Fast vector & matrix operations
   LAPACKE interface :  Fast linear algebra routines
   SCALAPACK package :  Parallel linear algebra routines
   Shared memory     :  Shared parallel matrices
   BLAS/LAPACK       :  OpenBLAS 0.3.27  USE64BITINT DYNAMIC_ARCH NO_AFFINITY SkylakeX SINGLE_THREADED
        Core in use  :  SkylakeX
   Copyright (c) 2011-2014, The OpenBLAS Project


NOTE: MaxCore=8000 MB was set to SCF,MP2,MDCI,CIPSI,MRCI and CIS
      => If you want to overwrite this, your respective input block should be placed after the MaxCore statement
Your calculation utilizes the atom-pairwise dispersion correction
with the Becke-Johnson damping scheme (D3BJ)


Your calculation utilizes the SMD solvation module
Please cite in your paper:
A.V. Marenich, C.J. Cramer, D.G. Truhlar J. Phys. Chem. B, 113, (2009), 6378 

Warning: RI is on but no J-basis has been assigned. Assigning Def2/J (nothing to worry about!)
================================================================================

----- Orbital basis set information -----
Your calculation utilizes the basis: def2-TZVP
   F. Weigend and R. Ahlrichs, Phys. Chem. Chem. Phys. 7, 3297 (2005).

----- AuxJ basis set information -----
Your calculation utilizes the auxiliary basis: def2/J
   F. Weigend, Phys. Chem. Chem. Phys. 8, 1057 (2006).

================================================================================
                                        WARNINGS
                       Please study these warnings very carefully!
================================================================================


WARNING: your system is open-shell and RHF/RKS was chosen
  ===> : WILL SWITCH to UHF/UKS


WARNING: Geometry Optimization
  ===> : Switching off AutoStart
         For restart on a previous wavefunction, please use MOREAD

================================================================================
                                       INPUT FILE
================================================================================
NAME = rf_mecn_1H2O_opt_B3L_con_002.inp
|  1> !B3LYP def2-TZVP opt d3 TightSCF SlowConv defgrid2
|  2>  
|  3> %pal
|  4> nprocs 20
|  5> end
|  6>  
|  7> %scf
|  8> MaxIter 1500
|  9> end
| 10>  
| 11> %maxcore 8000
| 12>  
| 13> !CPCM
| 14> %cpcm smd true
| 15> SMDsolvent "ACETONITRILE"
| 16> end
| 17>  
| 18> * xyz -1 2
| 19> 6        6.857280945     27.901753127      3.100719684
| 20> 6        6.154044945     26.704598127      2.411135684
| 21> 6        7.086539945     25.482838127      2.185613684
| 22> 6        6.299616945     24.171731127      1.900070684
| 23> 6        7.185881945     23.070259127      1.248991684
| 24> 6        6.565390945     21.647303127      1.360366684
| 25> 6        7.185681945     20.616666127      0.394672684
| 26> 6        6.843394945     19.121603127      0.784430684
| 27> 9        8.006806945     28.182557127      2.503585684
| 28> 9        7.082780945     27.647576127      4.378925684
| 29> 9        6.067588945     28.966668127      3.018348684
| 30> 9        5.116418945     26.361022127      3.182510684
| 31> 9        5.702795945     27.135986127      1.230360684
| 32> 9        7.887905945     25.777720127      1.156931684
| 33> 9        7.829891945     25.318192127      3.287321684
| 34> 9        5.806494945     23.745652127      3.066652684
| 35> 9        5.287431945     24.474179127      1.076603684
| 36> 9        7.350609945     23.413929127     -0.034316316
| 37> 9        6.756126945     21.255165127      2.631170684
| 38> 9        5.250981945     21.784657127      1.133608684
| 39> 9        6.706596945     20.903759127     -0.845345316
| 40> 9        8.519170945     20.869305127      0.364163684
| 41> 8        7.813741945     18.363469127      0.789215684
| 42> 8        5.634555945     18.967368127      0.997888684
| 43> 8        2.818390092     18.736599843      1.412612662
| 44> 1        2.716934106     17.791620290      1.243555674
| 45> 1        3.748070901     18.906228277      1.215686974
| 46> *
| 47> 
| 48>                          ****END OF INPUT****
================================================================================

                       *****************************
                       * Geometry Optimization Run *
                       *****************************

Geometry optimization settings:
Update method            Update   .... BFGS
Choice of coordinates    CoordSys .... (2022) Redundant Internals
Initial Hessian          InHess   .... Almloef's Model
Max. no of cycles        MaxIter  .... 81

Convergence Tolerances:
Energy Change            TolE     ....  5.0000e-06 Eh
Max. Gradient            TolMAXG  ....  3.0000e-04 Eh/bohr
RMS Gradient             TolRMSG  ....  1.0000e-04 Eh/bohr
Max. Displacement        TolMAXD  ....  4.0000e-03 bohr
RMS Displacement         TolRMSD  ....  2.0000e-03 bohr
Strict Convergence                .... False

------------------------------------------------------------------------------
                        ORCA OPTIMIZATION COORDINATE SETUP
------------------------------------------------------------------------------

The optimization will be done in redundant internal coordinates (2022)
Making redundant internal coordinates   ...  (2022 redundants) done
Evaluating the initial hessian          ...  (Almloef) done
Evaluating the coordinates              ...  done
Calculating the B-matrix                .... done
Calculating the G-matrix                .... done
Diagonalizing the G-matrix              .... done
Small eigenvalue found = 2.463e-03
Small eigenvalue found = 9.250e-03
Small eigenvalue found = 1.177e-02
Small eigenvalue found = 2.637e-02
The first mode is                       ....   39
The number of degrees of freedom        ....   75

    -----------------------------------------------------------------
                    Redundant Internal Coordinates


    -----------------------------------------------------------------
         Definition                    Initial Value    Approx d2E/dq
    -----------------------------------------------------------------
      1. B(C   1,C   0)                  1.5502         0.346804   
      2. B(C   2,C   1)                  1.5534         0.342781   
      3. B(C   3,C   2)                  1.5556         0.340086   
      4. B(C   4,C   3)                  1.5565         0.338954   
      5. B(C   5,C   4)                  1.5563         0.339111   
      6. B(C   6,C   5)                  1.5426         0.356709   
      7. B(C   7,C   6)                  1.5825         0.308055   
      8. B(F   8,C   0)                  1.3255         0.659090   
      9. B(F   9,C   0)                  1.3226         0.666042   
     10. B(F  10,C   0)                  1.3283         0.652181   
     11. B(F  11,C   1)                  1.3378         0.629847   
     12. B(F  12,C   1)                  1.3356         0.634870   
     13. B(F  13,C   2)                  1.3369         0.631928   
     14. B(F  14,C   2)                  1.3392         0.626649   
     15. B(F  15,C   3)                  1.3363         0.633409   
     16. B(F  16,C   3)                  1.3394         0.626090   
     17. B(F  17,C   4)                  1.3387         0.627782   
     18. B(F  18,C   5)                  1.3435         0.616728   
     19. B(F  19,C   5)                  1.3409         0.622782   
     20. B(F  20,C   6)                  1.3600         0.580545   
     21. B(F  21,C   6)                  1.3576         0.585779   
     22. B(O  22,C   7)                  1.2314         1.002075   
     23. B(O  23,C   7)                  1.2372         0.981004   
     24. B(H  25,O  24)                  0.9653         0.509876   
     25. B(H  26,O  23)                  1.9000         0.016453   
     26. B(H  26,O  24)                  0.9653         0.509876   
     27. A(F   9,C   0,F  10)          108.3827         0.434046   
     28. A(C   1,C   0,F  10)          108.7739         0.390821   
     29. A(C   1,C   0,F   8)          110.8930         0.391542   
     30. A(F   8,C   0,F   9)          109.1619         0.434870   
     31. A(C   1,C   0,F   9)          111.0282         0.392261   
     32. A(F   8,C   0,F  10)          108.5307         0.433227   
     33. A(C   2,C   1,F  11)          110.3230         0.387660   
     34. A(C   0,C   1,C   2)          113.5553         0.353571   
     35. A(C   0,C   1,F  11)          107.0787         0.388450   
     36. A(F  11,C   1,F  12)          109.3079         0.427641   
     37. A(C   2,C   1,F  12)          109.1769         0.388197   
     38. A(C   0,C   1,F  12)          107.2827         0.388989   
     39. A(C   3,C   2,F  14)          109.1587         0.386784   
     40. A(F  13,C   2,F  14)          109.1107         0.426896   
     41. A(C   1,C   2,C   3)          112.6983         0.352402   
     42. A(C   1,C   2,F  14)          108.0873         0.387316   
     43. A(C   3,C   2,F  13)          110.3587         0.387350   
     44. A(C   1,C   2,F  13)          107.3405         0.387883   
     45. A(F  15,C   3,F  16)          109.2595         0.427007   
     46. A(C   4,C   3,F  16)          109.4458         0.386499   
     47. A(C   2,C   3,F  16)          107.7470         0.386724   
     48. A(C   4,C   3,F  15)          110.4668         0.387282   
     49. A(C   2,C   3,C   4)          112.6559         0.351734   
     50. A(C   2,C   3,F  15)          107.1682         0.387508   
     51. A(C   5,C   4,F  17)          110.6326         0.386712   
     52. A(C   3,C   4,F  17)          106.8213         0.386681   
     53. A(C   3,C   4,C   5)          112.9589         0.351563   
     54. A(C   6,C   5,F  18)          109.8795         0.388932   
     55. A(C   4,C   5,F  18)          106.1374         0.385517   
     56. A(C   4,C   5,C   6)          113.9380         0.354615   
     57. A(F  18,C   5,F  19)          109.2091         0.424568   
     58. A(C   6,C   5,F  19)          110.9006         0.389596   
     59. A(C   4,C   5,F  19)          106.5622         0.386174   
     60. A(C   5,C   6,C   7)          112.9578         0.348903   
     61. A(F  20,C   6,F  21)          106.6335         0.415450   
     62. A(C   7,C   6,F  21)          113.1920         0.375779   
     63. A(C   5,C   6,F  21)          106.5420         0.385457   
     64. A(C   7,C   6,F  20)          110.3532         0.375197   
     65. A(C   5,C   6,F  20)          106.7446         0.384856   
     66. A(O  22,C   7,O  23)          133.8297         0.508781   
     67. A(C   6,C   7,O  23)          111.8150         0.413089   
     68. A(C   6,C   7,O  22)          114.3410         0.414652   
     69. A(C   7,O  23,H  26)          173.6796         0.231741   
     70. A(H  25,O  24,H  26)          103.7396         0.319780   
     71. A(O  23,H  26,O  24)          170.1504         0.195092   
     72. D(F  11,C   1,C   0,F   9)     49.4768         0.009705   
     73. D(C   2,C   1,C   0,F   8)     48.9947         0.009705   
     74. D(C   2,C   1,C   0,F  10)    168.2729         0.009705   
     75. D(F  11,C   1,C   0,F  10)    -69.7011         0.009705   
     76. D(F  11,C   1,C   0,F   8)    171.0207         0.009705   
     77. D(C   2,C   1,C   0,F   9)    -72.5492         0.009705   
     78. D(C   3,C   2,C   1,C   0)    162.7875         0.009500   
     79. D(F  13,C   2,C   1,F  12)     44.1537         0.009500   
     80. D(F  13,C   2,C   1,F  11)    164.2939         0.009500   
     81. D(F  13,C   2,C   1,C   0)    -75.4998         0.009500   
     82. D(C   3,C   2,C   1,F  11)     42.5812         0.009500   
     83. D(C   3,C   2,C   1,F  12)    -77.5590         0.009500   
     84. D(C   4,C   3,C   2,F  14)    -77.7232         0.009364   
     85. D(C   4,C   3,C   2,F  13)     42.1846         0.009364   
     86. D(C   4,C   3,C   2,C   1)    162.1720         0.009364   
     87. D(F  15,C   3,C   2,F  14)     43.9807         0.009364   
     88. D(F  15,C   3,C   2,F  13)    163.8885         0.009364   
     89. D(F  15,C   3,C   2,C   1)    -76.1241         0.009364   
     90. D(F  17,C   4,C   3,C   2)    -75.9715         0.008735   
     91. D(C   5,C   4,C   3,F  16)    -77.9884         0.008735   
     92. D(C   5,C   4,C   3,F  15)     42.3521         0.008735   
     93. D(F  17,C   4,C   3,F  15)    164.2137         0.008735   
     94. D(C   5,C   4,C   3,C   2)    162.1669         0.008735   
     95. D(F  19,C   5,C   4,C   3)     40.5013         0.008743   
     96. D(F  18,C   5,C   4,F  17)    164.4895         0.008743   
     97. D(F  18,C   5,C   4,C   3)    -75.8189         0.008743   
     98. D(C   6,C   5,C   4,F  17)     43.4416         0.008743   
     99. D(C   6,C   5,C   4,C   3)    163.1331         0.008743   
    100. D(C   7,C   6,C   5,F  19)    -75.6808         0.010222   
    101. D(C   7,C   6,C   5,F  18)     45.1557         0.010222   
    102. D(C   7,C   6,C   5,C   4)    164.0956         0.010222   
    103. D(F  20,C   6,C   5,F  19)     45.7788         0.010222   
    104. D(F  20,C   6,C   5,F  18)    166.6154         0.010222   
    105. D(F  20,C   6,C   5,C   4)    -74.4447         0.010222   
    106. D(O  23,C   7,C   6,F  20)    -70.5516         0.007386   
    107. D(O  23,C   7,C   6,C   5)     48.8461         0.007386   
    108. D(O  22,C   7,C   6,F  21)    -11.1459         0.007386   
    109. D(O  22,C   7,C   6,F  20)    108.2663         0.007386   
    110. D(O  22,C   7,C   6,C   5)   -132.3360         0.007386   
    111. D(H  26,O  23,C   7,O  22)   -158.3762         0.078375   
    112. D(H  26,O  23,C   7,C   6)     20.1307         0.078375   
    113. D(O  23,H  26,O  24,H  25)    -44.6419         0.289652   
    114. D(O  24,H  26,O  23,C   7)    180.0000         0.001625   
    -----------------------------------------------------------------

Number of atoms                         .... 27
Number of degrees of freedom            .... 114


         *************************************************************
         *                GEOMETRY OPTIMIZATION CYCLE   1            *
         *************************************************************
---------------------------------
CARTESIAN COORDINATES (ANGSTROEM)
---------------------------------
  C      6.857281   27.901753    3.100720
  C      6.154045   26.704598    2.411136
  C      7.086540   25.482838    2.185614
  C      6.299617   24.171731    1.900071
  C      7.185882   23.070259    1.248992
  C      6.565391   21.647303    1.360367
  C      7.185682   20.616666    0.394673
  C      6.843395   19.121603    0.784431
  F      8.006807   28.182557    2.503586
  F      7.082781   27.647576    4.378926
  F      6.067589   28.966668    3.018349
  F      5.116419   26.361022    3.182511
  F      5.702796   27.135986    1.230361
  F      7.887906   25.777720    1.156932
  F      7.829892   25.318192    3.287322
  F      5.806495   23.745652    3.066653
  F      5.287432   24.474179    1.076604
  F      7.350610   23.413929   -0.034316
  F      6.756127   21.255165    2.631171
  F      5.250982   21.784657    1.133609
  F      6.706597   20.903759   -0.845345
  F      8.519171   20.869305    0.364164
  O      7.813742   18.363469    0.789216
  O      5.634556   18.967368    0.997889
  O      2.818390   18.736600    1.412613
  H      2.716934   17.791620    1.243556
  H      3.748071   18.906228    1.215687

----------------------------
CARTESIAN COORDINATES (A.U.)
----------------------------
  NO LB      ZA    FRAG     MASS         X           Y           Z
   0 C     6.0000    0    12.011   12.958383   52.726672    5.859511
   1 C     6.0000    0    12.011   11.629460   50.464377    4.556386
   2 C     6.0000    0    12.011   13.391620   48.155585    4.130211
   3 C     6.0000    0    12.011   11.904551   45.677952    3.590613
   4 C     6.0000    0    12.011   13.579349   43.596472    2.360252
   5 C     6.0000    0    12.011   12.406791   40.907474    2.570720
   6 C     6.0000    0    12.011   13.578971   38.959853    0.745823
   7 C     6.0000    0    12.011   12.932142   36.134593    1.482359
   8 F     9.0000    0    18.998   15.130672   53.257315    4.731091
   9 F     9.0000    0    18.998   13.384516   52.246347    8.274970
  10 F     9.0000    0    18.998   11.466081   54.739070    5.703852
  11 F     9.0000    0    18.998    9.668631   49.815112    6.014074
  12 F     9.0000    0    18.998   10.776723   51.279582    2.325045
  13 F     9.0000    0    18.998   14.905982   48.712831    2.186284
  14 F     9.0000    0    18.998   14.796351   47.844449    6.212138
  15 F     9.0000    0    18.998   10.972685   44.872779    5.795134
  16 F     9.0000    0    18.998    9.991798   46.249496    2.034486
  17 F     9.0000    0    18.998   13.890640   44.245914   -0.064848
  18 F     9.0000    0    18.998   12.767230   40.166441    4.972192
  19 F     9.0000    0    18.998    9.922918   41.167036    2.142210
  20 F     9.0000    0    18.998   12.673632   39.502380   -1.597471
  21 F     9.0000    0    18.998   16.098900   39.437271    0.688170
  22 O     8.0000    0    15.999   14.765832   34.701928    1.491402
  23 O     8.0000    0    15.999   10.647768   35.843131    1.885736
  24 O     8.0000    0    15.999    5.325985   35.407042    2.669451
  25 H     1.0000    0     1.008    5.134261   33.621290    2.349980
  26 H     1.0000    0     1.008    7.082828   35.727594    2.297315

--------------------------------
INTERNAL COORDINATES (ANGSTROEM)
--------------------------------
 C      0   0   0     0.000000000000     0.00000000     0.00000000
 C      1   0   0     1.550240967971     0.00000000     0.00000000
 C      2   1   0     1.553417070561   113.55533844     0.00000000
 C      3   2   1     1.555565549319   112.69827683   162.78749478
 C      4   3   2     1.556473604418   112.65593685   162.17204174
 C      5   4   3     1.556347406475   112.95890429   162.16693919
 C      6   5   4     1.542575266263   113.93798420   163.13314068
 C      7   6   5     1.582493305800   112.95775891   164.09560104
 F      1   2   3     1.325454610708   110.89295443    48.99470066
 F      1   2   3     1.322598493786   111.02821211   287.45080856
 F      1   2   3     1.328323151093   108.77385697   168.27294708
 F      2   1   3     1.337808496862   107.07872998   122.02597894
 F      2   1   3     1.335646235786   107.28270546   239.27402584
 F      3   2   1     1.336910437166   107.34054952   284.50021141
 F      3   2   1     1.339194167581   108.08730739    42.06766241
 F      4   3   2     1.336273244456   107.16821115   283.87589533
 F      4   3   2     1.339436884298   107.74698212    41.35047990
 F      5   4   3     1.338702284210   106.82131950   284.02853646
 F      6   5   4     1.343538328131   106.13743735   284.18106314
 F      6   5   4     1.340878939786   106.56217547    40.50128759
 F      7   6   5     1.359996128008   106.74461671   285.55525164
 F      7   6   5     1.357553010576   106.54195382    39.20780969
 O      8   7   6     1.231407064536   114.34099629   227.66396244
 O      8   7   6     1.237192176224   111.81500307    48.84611502
 O     24   8   7     2.855878164494   176.99440113    20.13066459
 H     25  24   8     0.965328927296    99.05067288   136.27702780
 H     25  24   8     0.965328927795     6.53484144     0.00000000

---------------------------
INTERNAL COORDINATES (A.U.)
---------------------------
 C      0   0   0     0.000000000000     0.00000000     0.00000000
 C      1   0   0     2.929530871051     0.00000000     0.00000000
 C      2   1   0     2.935532835118   113.55533844     0.00000000
 C      3   2   1     2.939592871575   112.69827683   162.78749478
 C      4   3   2     2.941308847027   112.65593685   162.17204174
 C      5   4   3     2.941070367477   112.95890429   162.16693919
 C      6   5   4     2.915044794198   113.93798420   163.13314068
 C      7   6   5     2.990478956726   112.95775891   164.09560104
 F      1   2   3     2.504746217182   110.89295443    48.99470066
 F      1   2   3     2.499348938392   111.02821211   287.45080856
 F      1   2   3     2.510166972913   108.77385697   168.27294708
 F      2   1   3     2.528091678703   107.07872998   122.02597894
 F      2   1   3     2.524005597439   107.28270546   239.27402584
 F      3   2   1     2.526394591825   107.34054952   284.50021141
 F      3   2   1     2.530710216873   108.08730739    42.06766241
 F      4   3   2     2.525190472108   107.16821115   283.87589533
 F      4   3   2     2.531168884996   107.74698212    41.35047990
 F      5   4   3     2.529780692011   106.82131950   284.02853646
 F      6   5   4     2.538919490593   106.13743735   284.18106314
 F      6   5   4     2.533893974938   106.56217547    40.50128759
 F      7   6   5     2.570020225129   106.74461671   285.55525164
 F      7   6   5     2.565403402268   106.54195382    39.20780969
 O      8   7   6     2.327022111350   114.34099629   227.66396244
 O      8   7   6     2.337954388093   111.81500307    48.84611502
 O     24   8   7     5.396827602739   176.99440113    20.13066459
 H     25  24   8     1.824207301742    99.05067288   136.27702780
 H     25  24   8     1.824207302685     6.53484144     0.00000000

---------------------
BASIS SET INFORMATION
---------------------
There are 4 groups of distinct atoms

 Group   1 Type C   : 11s6p2d1f contracted to 5s3p2d1f pattern {62111/411/11/1}
 Group   2 Type F   : 11s6p2d1f contracted to 5s3p2d1f pattern {62111/411/11/1}
 Group   3 Type O   : 11s6p2d1f contracted to 5s3p2d1f pattern {62111/411/11/1}
 Group   4 Type H   : 5s1p contracted to 3s1p pattern {311/1}

Atom   0C    basis set group =>   1
Atom   1C    basis set group =>   1
Atom   2C    basis set group =>   1
Atom   3C    basis set group =>   1
Atom   4C    basis set group =>   1
Atom   5C    basis set group =>   1
Atom   6C    basis set group =>   1
Atom   7C    basis set group =>   1
Atom   8F    basis set group =>   2
Atom   9F    basis set group =>   2
Atom  10F    basis set group =>   2
Atom  11F    basis set group =>   2
Atom  12F    basis set group =>   2
Atom  13F    basis set group =>   2
Atom  14F    basis set group =>   2
Atom  15F    basis set group =>   2
Atom  16F    basis set group =>   2
Atom  17F    basis set group =>   2
Atom  18F    basis set group =>   2
Atom  19F    basis set group =>   2
Atom  20F    basis set group =>   2
Atom  21F    basis set group =>   2
Atom  22O    basis set group =>   3
Atom  23O    basis set group =>   3
Atom  24O    basis set group =>   3
Atom  25H    basis set group =>   4
Atom  26H    basis set group =>   4
---------------------------------
AUXILIARY/J BASIS SET INFORMATION
---------------------------------
There are 4 groups of distinct atoms

 Group   1 Type C   : 12s5p4d2f1g contracted to 6s4p3d1f1g pattern {711111/2111/211/2/1}
 Group   2 Type F   : 12s5p4d2f1g contracted to 6s4p3d1f1g pattern {711111/2111/211/2/1}
 Group   3 Type O   : 12s5p4d2f1g contracted to 6s4p3d1f1g pattern {711111/2111/211/2/1}
 Group   4 Type H   : 5s2p1d contracted to 3s1p1d pattern {311/2/1}

Atom   0C    basis set group =>   1
Atom   1C    basis set group =>   1
Atom   2C    basis set group =>   1
Atom   3C    basis set group =>   1
Atom   4C    basis set group =>   1
Atom   5C    basis set group =>   1
Atom   6C    basis set group =>   1
Atom   7C    basis set group =>   1
Atom   8F    basis set group =>   2
Atom   9F    basis set group =>   2
Atom  10F    basis set group =>   2
Atom  11F    basis set group =>   2
Atom  12F    basis set group =>   2
Atom  13F    basis set group =>   2
Atom  14F    basis set group =>   2
Atom  15F    basis set group =>   2
Atom  16F    basis set group =>   2
Atom  17F    basis set group =>   2
Atom  18F    basis set group =>   2
Atom  19F    basis set group =>   2
Atom  20F    basis set group =>   2
Atom  21F    basis set group =>   2
Atom  22O    basis set group =>   3
Atom  23O    basis set group =>   3
Atom  24O    basis set group =>   3
Atom  25H    basis set group =>   4
Atom  26H    basis set group =>   4


           ************************************************************
           *        Program running with 20 parallel MPI-processes    *
           *              working on a common directory               *
           ************************************************************
------------------------------------------------------------------------------
                             ORCA STARTUP CALCULATIONS
                           -- RI-GTO INTEGRALS CHOSEN --
------------------------------------------------------------------------------
------------------------------------------------------------------------------
                   ___                                                        
                  /   \      - P O W E R E D   B Y -                         
                 /     \                                                     
                 |  |  |   _    _      __       _____    __    __             
                 |  |  |  | |  | |    /  \     |  _  \  |  |  /  |          
                  \  \/   | |  | |   /    \    | | | |  |  | /  /          
                 / \  \   | |__| |  /  /\  \   | |_| |  |  |/  /          
                |  |  |   |  __  | /  /__\  \  |    /   |      \           
                |  |  |   | |  | | |   __   |  |    \   |  |\   \          
                \     /   | |  | | |  |  |  |  | |\  \  |  | \   \       
                 \___/    |_|  |_| |__|  |__|  |_| \__\ |__|  \__/        
                                                                              
                      - O R C A' S   B I G   F R I E N D -                    
                                      &                                       
                       - I N T E G R A L  F E E D E R -                       
                                                                              
 v1 FN, 2020, v2 2021, v3 2022-2024                                           
------------------------------------------------------------------------------


----------------------
SHARK INTEGRAL PACKAGE
----------------------

Number of atoms                             ...     27
Number of basis functions                   ...    787
Number of shells                            ...    283
Maximum angular momentum                    ...      3
Integral batch strategy                     ... SHARK/LIBINT Hybrid
RI-J (if used) integral strategy            ... SPLIT-RIJ (Revised 2003 algorithm where possible)
Printlevel                                  ...      1
Contraction scheme used                     ... SEGMENTED contraction
Prescreening option                         ... SCHWARTZ
   Thresh                                   ... 2.500e-11
   Tcut                                     ... 2.500e-12
   Tpresel                                  ... 2.500e-12 
Coulomb Range Separation                    ... NOT USED
Exchange Range Separation                   ... NOT USED
Multipole approximations                    ... NOT USED
Finite Nucleus Model                        ... NOT USED
CABS basis                                  ... NOT available
Auxiliary Coulomb fitting basis             ... AVAILABLE
   # of basis functions in Aux-J            ...   1247
   # of shells in Aux-J                     ...    385
   Maximum angular momentum in Aux-J        ...      4
Auxiliary J/K fitting basis                 ... NOT available
Auxiliary Correlation fitting basis         ... NOT available
Auxiliary 'external' fitting basis          ... NOT available

Checking pre-screening integrals            ... done (  0.0 sec) Dimension = 283
Check shell pair data                       ... done (  0.0 sec)
Shell pair information
Shell pair cut-off parameter TPreSel        ...   2.5e-12
Total number of shell pairs                 ...     40186
Shell pairs after pre-screening             ...     23524
Total number of primitive shell pairs       ...    131884
Primitive shell pairs kept                  ...     49490
          la=0 lb=0:   4569 shell pairs
          la=1 lb=0:   6476 shell pairs
          la=1 lb=1:   2222 shell pairs
          la=2 lb=0:   3469 shell pairs
          la=2 lb=1:   2521 shell pairs
          la=2 lb=2:    697 shell pairs
          la=3 lb=0:   1580 shell pairs
          la=3 lb=1:   1202 shell pairs
          la=3 lb=2:    634 shell pairs
          la=3 lb=3:    154 shell pairs

Calculating one electron integrals          ... done (  0.0 sec)
Calculating RI/J V-Matrix + Cholesky decomp.... done (  0.1 sec)
Calculating Nuclear repulsion               ... done (  0.0 sec) ENN=   2802.103271978284 Eh

Diagonalization of the overlap matrix:
Smallest eigenvalue                        ... 5.656e-05
Time for diagonalization                   ...    0.113 sec
Threshold for overlap eigenvalues          ... 1.000e-07
Number of eigenvalues below threshold      ... 0
Time for construction of square roots      ...    0.049 sec
Total time needed                          ...    0.168 sec

-------------------
DFT GRID GENERATION
-------------------

General Integration Accuracy     IntAcc      ... 4.388
Radial Grid Type                 RadialGrid  ... OptM3 with GC (2021)
Angular Grid (max. ang.)         AngularGrid ... 4 (Lebedev-302)
Angular grid pruning method      GridPruning ... 4 (adaptive)
Weight generation scheme         WeightScheme... mBecke (2022)
Basis function cutoff            BFCut       ... 1.0000e-11
Integration weight cutoff        WCut        ... 1.0000e-14
Partially contracted basis set               ... off
Rotationally invariant grid construction     ... off
Angular grids for H and He will be reduced by one unit

Total number of grid points                  ...   158079
Total number of batches                      ...     2483
Average number of points per batch           ...       63
Average number of grid points per atom       ...     5855

--------------------
COSX GRID GENERATION
--------------------

GRIDX 1
-------
General Integration Accuracy     IntAcc      ... 3.816
Radial Grid Type                 RadialGrid  ... OptM3 with GC (2021)
Angular Grid (max. ang.)         AngularGrid ... 1 (Lebedev-50)
Angular grid pruning method      GridPruning ... 4 (adaptive)
Weight generation scheme         WeightScheme... mBecke (2022)
Basis function cutoff            BFCut       ... 1.0000e-11
Integration weight cutoff        WCut        ... 1.0000e-14
Partially contracted basis set               ... on
Rotationally invariant grid construction     ... off
Angular grids for H and He will be reduced by one unit

Total number of grid points                  ...    19906
Total number of batches                      ...      167
Average number of points per batch           ...      119
Average number of grid points per atom       ...      737
UseSFitting                                  ... on

GRIDX 2
-------
General Integration Accuracy     IntAcc      ... 4.020
Radial Grid Type                 RadialGrid  ... OptM3 with GC (2021)
Angular Grid (max. ang.)         AngularGrid ... 2 (Lebedev-110)
Angular grid pruning method      GridPruning ... 4 (adaptive)
Weight generation scheme         WeightScheme... mBecke (2022)
Basis function cutoff            BFCut       ... 1.0000e-11
Integration weight cutoff        WCut        ... 1.0000e-14
Partially contracted basis set               ... on
Rotationally invariant grid construction     ... off
Angular grids for H and He will be reduced by one unit

Total number of grid points                  ...    46642
Total number of batches                      ...      379
Average number of points per batch           ...      123
Average number of grid points per atom       ...     1727
UseSFitting                                  ... on

GRIDX 3
-------
General Integration Accuracy     IntAcc      ... 4.338
Radial Grid Type                 RadialGrid  ... OptM3 with GC (2021)
Angular Grid (max. ang.)         AngularGrid ... 3 (Lebedev-194)
Angular grid pruning method      GridPruning ... 4 (adaptive)
Weight generation scheme         WeightScheme... mBecke (2022)
Basis function cutoff            BFCut       ... 1.0000e-11
Integration weight cutoff        WCut        ... 1.0000e-14
Partially contracted basis set               ... on
Rotationally invariant grid construction     ... off
Angular grids for H and He will be reduced by one unit

Total number of grid points                  ...   103267
Total number of batches                      ...      819
Average number of points per batch           ...      126
Average number of grid points per atom       ...     3825
UseSFitting                                  ... on
Initializing property integral containers    ... done (  0.0 sec)

SHARK setup successfully completed in   2.9 seconds

Maximum memory used throughout the entire STARTUP-calculation: 60.3 MB


           ************************************************************
           *        Program running with 20 parallel MPI-processes    *
           *              working on a common directory               *
           ************************************************************
-------------------------------------------------------------------------------
                                 ORCA GUESS
                   Start orbitals & Density for SCF / CASSCF
-------------------------------------------------------------------------------

------------
SCF SETTINGS
------------
Hamiltonian:
 Density Functional     Method          .... DFT(GTOs)
 Exchange Functional    Exchange        .... B88
   X-Alpha parameter    XAlpha          ....  0.666667
   Becke's b parameter  XBeta           ....  0.004200
 Correlation Functional Correlation     .... LYP
 LDA part of GGA corr.  LDAOpt          .... VWN-5
 Gradients option       PostSCFGGA      .... off
 Hybrid DFT is turned on
   Fraction HF Exchange ScalHFX         ....  0.200000
   Scaling of DF-GGA-X  ScalDFX         ....  0.720000
   Scaling of DF-GGA-C  ScalDFC         ....  0.810000
   Scaling of DF-LDA-C  ScalLDAC        ....  1.000000
   Perturbative correction              ....  0.000000
   NL short-range parameter             ....  4.800000
 RI-approximation to the Coulomb term is turned on
   Number of AuxJ basis functions       .... 1247
   RIJ-COSX (HFX calculated with COS-X)).... on


General Settings:
 Integral files         IntName         .... rf_mecn_1H2O_opt_B3L_con_002
 Hartree-Fock type      HFTyp           .... UHF
 Total Charge           Charge          ....   -1
 Multiplicity           Mult            ....    2
 Number of Electrons    NEL             ....  201
 Basis Dimension        Dim             ....  787
 Nuclear Repulsion      ENuc            ....   2802.1032719783 Eh

Convergence Acceleration:
 AO-DIIS                CNVDIIS         .... on
   Start iteration      DIISMaxIt       ....     0
   Startup error        DIISStart       ....  0.200000
   # of expansion vecs  DIISMaxEq       ....     5
   Bias factor          DIISBfac        ....   1.050
   Max. coefficient     DIISMaxC        ....  10.000
 MO-DIIS                CNVKDIIS        .... off
 Trust-Rad. Augm. Hess. CNVTRAH         .... auto
   Auto Start mean grad. ratio tolernc. ....  1.125000
   Auto Start start iteration           ....    50
   Auto Start num. interpolation iter.  ....    10
   Max. Number of Micro iterations      ....    24
   Max. Number of Macro iterations      .... Maxiter - #DIIS iter
   Number of Davidson start vectors     ....     2
   Converg. threshold    (grad. norm)   ....   1.000e-05
   Grad. Scal. Fac. for Micro threshold ....   0.100
   Minimum threshold for Micro iter.    ....   1.000e-02
   NR start threshold (gradient norm)   ....   1.000e-04
   Initial trust radius                 ....   0.400
   Minimum AH scaling param. (alpha)    ....   1.000
   Maximum AH scaling param. (alpha)    .... 1000.000
   Quad. conv. algorithm                .... NR
   White noise on init. David. guess    .... on
   Maximum white noise                  ....   0.010
   Pseudo random numbers                .... off
   Inactive MOs                         .... canonical
   Orbital update algorithm             .... Taylor
   Preconditioner                       .... Diag
   Full preconditioner red. dimension   ....   250
 SOSCF                  CNVSOSCF        .... on
   Start iteration      SOSCFMaxIt      ....   150
   Startup grad/error   SOSCFStart      ....  0.001000
   Hessian update       SOSCFHessUp     .... L-BFGS
 Level Shifting         CNVShift        .... on
   Level shift para.    LevelShift      ....    0.2500
   Turn off err/grad.   ShiftErr        ....    0.0000
 Zerner damping         CNVZerner       .... off
 Static damping         CNVDamp         .... on
   Fraction old density DampFac         ....    0.8500
   Max. Damping (<1)    DampMax         ....    0.9800
   Min. Damping (>=0)   DampMin         ....    0.0000
   Turn off err/grad.   DampErr         ....    0.0300

SCF Procedure:
 Maximum # iterations   MaxIter         ....  1500
 SCF integral mode      SCFMode         .... Direct
   Integral package                     .... SHARK and LIBINT hybrid scheme
 Reset frequency        DirectResetFreq ....    20
 Integral Threshold     Thresh          ....  2.500e-11 Eh
 Primitive CutOff       TCut            ....  2.500e-12 Eh

Convergence Tolerance:
 Convergence Check Mode ConvCheckMode   .... Total+1el-Energy
 Convergence forced     ConvForced      .... 0
 Energy Change          TolE            ....  1.000e-08 Eh
 1-El. energy change                    ....  1.000e-05 Eh
 Orbital Gradient       TolG            ....  1.000e-05
 Orbital Rotation angle TolX            ....  1.000e-05
 DIIS Error             TolErr          ....  5.000e-07

------------------------------
INITIAL GUESS: MODEL POTENTIAL
------------------------------
Loading Hartree-Fock densities                     ... done
Calculating cut-offs                               ... done
Initializing the effective Hamiltonian             ... done
Setting up the integral package (SHARK)            ... done
Starting the Coulomb interaction                   ... done (   0.2 sec)
Making the grid                                    ... done (   0.5 sec)
Mapping shells                                     ... done
Starting the XC term evaluation                    ... done (   0.1 sec)
  promolecular density results
     # of electrons  =    200.000154227
     EX              =   -207.108014566
     EC              =     -7.493557188
     EX+EC           =   -214.601571754
Transforming the Hamiltonian                       ... done (   0.1 sec)
Diagonalizing the Hamiltonian                      ... done (   0.1 sec)
Back transforming the eigenvectors                 ... done (   0.0 sec)
Now organizing SCF variables                       ... done
                      ------------------
                      INITIAL GUESS DONE (   1.1 sec)
                      ------------------
             **** ENERGY FILE WAS UPDATED (rf_mecn_1H2O_opt_B3L_con_002.en.tmp) ****
Finished Guess after   1.9 sec
Maximum memory used throughout the entire GUESS-calculation: 49.0 MB


           ************************************************************
           *        Program running with 20 parallel MPI-processes    *
           *              working on a common directory               *
           ************************************************************

-------------------------------------------------------------------------------------------
                                      ORCA LEAN-SCF
                              memory conserving SCF solver
-------------------------------------------------------------------------------------------

--------------------
CPCM SOLVATION MODEL
--------------------
CPCM parameters:
  Epsilon                                         ...      35.6880
  Refrac                                          ...       1.3442
  Rsolv                                           ...       1.3000
  Surface type                                    ... GAUSSIAN VDW
  Discretization scheme                           ... Constant charge density
    Threshold for H atoms                         ...       5.0000 (charges/Ang^2)
    Threshold for non-H atoms                     ...       5.0000 (charges/Ang^2)
  Epsilon function type                           ...         CPCM
Solvent:                                          ... ACETONITRILE
SMD-CDS solvent descriptors:
  Soln                                            ...       1.3442
  Soln25                                          ...       1.3416
  Sola                                            ...       0.0700
  Solb                                            ...       0.3200
  Solg                                            ...      41.2500
  Solc                                            ...       0.0000
  Solh                                            ...       0.0000
Radii:
  Scheme                                          ... Element-dependent radii
  Radius for C  used is    3.4960 Bohr (=   1.8500 Ang.)
  Radius for F  used is    3.2692 Bohr (=   1.7300 Ang.)
  Radius for O  used is    4.0969 Bohr (=   2.1680 Ang.)
  Radius for H  used is    2.2677 Bohr (=   1.2000 Ang.)
Calculating surface                               ...        done! (  0.0s)
Cavity surface points                             ...         2361
Cavity Volume                                     ...    2314.7460
Cavity Surface-area                               ...    1233.7898
Calculating surface distance matrix               ...        done! (  0.0s)
Performing Cholesky decomposition & store         ...        done! (  0.1s)
Overall time for CPCM initialization              ...                 0.2s

----------------------------------------D-I-I-S--------------------------------------------
Iteration    Energy (Eh)           Delta-E    RMSDP     MaxDP     DIISErr   Damp  Time(sec)
-------------------------------------------------------------------------------------------
               ***  Starting incremental Fock matrix formation  ***
    1    -1929.0588331107537670     0.00e+00  2.85e-04  4.99e-02  1.74e-01  0.850   6.9
Warning: op=0 Small HOMO/LUMO gap (   0.096) - skipping pre-diagonalization
         Will do a full diagonalization
    2    -1929.2452186291975522    -1.86e-01  4.00e-04  9.97e-02  1.22e-01  0.850   4.7
                               ***Turning on AO-DIIS***
    3    -1929.3485005831716990    -1.03e-01  1.98e-04  4.58e-02  7.56e-02  0.850   4.1
    4    -1929.4110630599470824    -6.26e-02  1.01e-04  1.84e-02  5.72e-02  0.850   3.9
    5    -1929.4557039935116336    -4.46e-02  5.88e-05  6.45e-03  4.69e-02  0.850   3.8
    6    -1929.4910059988478679    -3.53e-02  4.21e-05  3.02e-03  3.98e-02  0.850   3.7
    7    -1929.5202306960518399    -2.92e-02  3.55e-05  2.35e-03  3.41e-02  0.850   3.6
    8    -1929.5447712816321655    -2.45e-02  3.10e-05  2.28e-03  2.89e-02  0.850   3.8
    9    -1929.5651980805032508    -2.04e-02  1.78e-04  1.31e-02  2.41e-02  0.000   3.7
   10    -1929.6719504089223847    -1.07e-01  1.65e-05  3.08e-03  3.55e-03  0.000   4.1
                              *** Initializing SOSCF ***
---------------------------------------S-O-S-C-F--------------------------------------
Iteration    Energy (Eh)           Delta-E    RMSDP     MaxDP     MaxGrad    Time(sec)
--------------------------------------------------------------------------------------
   11    -1929.6721002620433865    -1.50e-04  1.02e-05  2.02e-03  6.76e-04     3.9
               *** Restarting incremental Fock matrix formation ***
   12    -1929.6720584180966398     4.18e-05  9.39e-06  9.51e-04  5.12e-04     6.6
   13    -1929.6720533635743777     5.05e-06  7.36e-06  9.34e-04  1.04e-03     4.7
   14    -1929.6720686118787853    -1.52e-05  1.76e-06  2.17e-04  6.89e-05     4.3
   15    -1929.6720683053044922     3.07e-07  1.01e-06  2.00e-04  7.84e-05     3.9
   16    -1929.6720688853711181    -5.80e-07  3.79e-07  5.24e-05  1.09e-05     3.6
   17    -1929.6720688924451679    -7.07e-09  1.35e-07  2.04e-05  1.50e-05     3.2
                 **** Energy Check signals convergence ****

               *****************************************************
               *                     SUCCESS                       *
               *           SCF CONVERGED AFTER  17 CYCLES          *
               *****************************************************

Recomputing exchange energy using gridx3       ... done (    8.082 sec)
Old exchange energy                            :    -41.612350888 Eh
New exchange energy                            :    -41.612338619 Eh
Exchange energy change after final integration :      0.000012269 Eh
Total energy after final integration           :  -1929.672056623 Eh

SMD CDS free energy correction energy :                 2.97435     Kcal/mol
Total Energy after SMD CDS correction =             -1929.667316696 Eh
             **** ENERGY FILE WAS UPDATED (rf_mecn_1H2O_opt_B3L_con_002.en.tmp) ****

----------------
TOTAL SCF ENERGY
----------------

Total Energy       :      -1929.66731669575506 Eh          -52508.91719 eV

Components:
Nuclear Repulsion  :       2802.10327197828428 Eh           76249.10646 eV
Electronic Energy  :      -4731.69586574831192 Eh         -128755.99034 eV
One Electron Energy:      -8283.85169648932060 Eh         -225415.06454 eV
Two Electron Energy:       3552.15583074100869 Eh           96659.07421 eV
CPCM Dielectric    :         -0.07947512241753 Eh              -2.16263 eV
SMD CDS (Gcds)     :          0.00473992750382 Eh               0.12898 eV

Virial components:
Potential Energy   :      -3853.26022805166212 Eh         -104852.54141 eV
Kinetic Energy     :       1923.59291135590684 Eh           52343.62422 eV
Virial Ratio       :          2.00315784348340

DFT components:
N(Alpha)           :      101.000003122184 electrons
N(Beta)            :       99.999997598298 electrons
N(Total)           :      201.000000720482 electrons
E(X)               :     -165.815550027257 Eh       
E(C)               :       -8.792889054464 Eh       
E(XC)              :     -174.608439081721 Eh       

CPCM Solvation Model Properties:
Surface-charge          :          0.98940514801076
Corrected charge        :          1.00000000000000
Outlying charge corr.   :          0.00000582121653 Eh               0.00016 eV
Free-energy (cav+disp)  :          0.00473992750382 Eh               0.12898 eV

---------------
SCF CONVERGENCE
---------------

  Last Energy change         ...    7.0740e-09  Tolerance :   1.0000e-08
  Last MAX-Density change    ...    2.0354e-05  Tolerance :   1.0000e-07
  Last RMS-Density change    ...    1.3483e-07  Tolerance :   5.0000e-09
  Last DIIS Error            ...    6.7600e-04  Tolerance :   5.0000e-07
  Last Orbital Gradient      ...    1.5018e-05  Tolerance :   1.0000e-05
  Last Orbital Rotation      ...    1.4952e-05  Tolerance :   1.0000e-05


----------------------
UHF SPIN CONTAMINATION
----------------------

Warning: in a DFT calculation there is little theoretical justification to 
         calculate <S**2> as in Hartree-Fock theory. We will do it anyways
         but you should keep in mind that the values have only limited relevance

Expectation value of <S**2>     :     0.752977
Ideal value S*(S+1) for S=0.5   :     0.750000
Deviation                       :     0.002977

----------------
ORBITAL ENERGIES
----------------
                 SPIN UP ORBITALS
  NO   OCC          E(Eh)            E(eV) 
   0   1.0000     -24.742563      -673.2794 
   1   1.0000     -24.741389      -673.2474 
   2   1.0000     -24.740602      -673.2260 
   3   1.0000     -24.739675      -673.2008 
   4   1.0000     -24.739501      -673.1960 
   5   1.0000     -24.739066      -673.1842 
   6   1.0000     -24.738936      -673.1807 
   7   1.0000     -24.737832      -673.1506 
   8   1.0000     -24.734687      -673.0651 
   9   1.0000     -24.733083      -673.0214 
  10   1.0000     -24.719957      -672.6642 
  11   1.0000     -24.716235      -672.5629 
  12   1.0000     -24.699506      -672.1077 
  13   1.0000     -24.699245      -672.1006 
  14   1.0000     -19.095352      -519.6109 
  15   1.0000     -19.071713      -518.9677 
  16   1.0000     -19.068907      -518.8913 
  17   1.0000     -10.454310      -284.4762 
  18   1.0000     -10.397668      -282.9349 
  19   1.0000     -10.395692      -282.8812 
  20   1.0000     -10.394017      -282.8356 
  21   1.0000     -10.372497      -282.2500 
  22   1.0000     -10.338387      -281.3218 
  23   1.0000     -10.321180      -280.8536 
  24   1.0000     -10.262118      -279.2464 
  25   1.0000      -1.357392       -36.9365 
  26   1.0000      -1.329142       -36.1678 
  27   1.0000      -1.311888       -35.6983 
  28   1.0000      -1.307687       -35.5840 
  29   1.0000      -1.296502       -35.2796 
  30   1.0000      -1.277291       -34.7569 
  31   1.0000      -1.268029       -34.5048 
  32   1.0000      -1.266031       -34.4504 
  33   1.0000      -1.260379       -34.2967 
  34   1.0000      -1.258200       -34.2374 
  35   1.0000      -1.251074       -34.0435 
  36   1.0000      -1.247458       -33.9451 
  37   1.0000      -1.235029       -33.6069 
  38   1.0000      -1.208099       -32.8741 
  39   1.0000      -1.036335       -28.2001 
  40   1.0000      -0.982786       -26.7430 
  41   1.0000      -0.956335       -26.0232 
  42   1.0000      -0.843493       -22.9526 
  43   1.0000      -0.822144       -22.3717 
  44   1.0000      -0.789373       -21.4799 
  45   1.0000      -0.754410       -20.5285 
  46   1.0000      -0.711054       -19.3488 
  47   1.0000      -0.685786       -18.6612 
  48   1.0000      -0.662128       -18.0174 
  49   1.0000      -0.647852       -17.6289 
  50   1.0000      -0.645278       -17.5589 
  51   1.0000      -0.638211       -17.3666 
  52   1.0000      -0.622666       -16.9436 
  53   1.0000      -0.620207       -16.8767 
  54   1.0000      -0.617499       -16.8030 
  55   1.0000      -0.606362       -16.4999 
  56   1.0000      -0.600859       -16.3502 
  57   1.0000      -0.594417       -16.1749 
  58   1.0000      -0.591713       -16.1013 
  59   1.0000      -0.581933       -15.8352 
  60   1.0000      -0.574330       -15.6283 
  61   1.0000      -0.559018       -15.2116 
  62   1.0000      -0.554207       -15.0807 
  63   1.0000      -0.520155       -14.1541 
  64   1.0000      -0.515681       -14.0324 
  65   1.0000      -0.508910       -13.8481 
  66   1.0000      -0.507964       -13.8224 
  67   1.0000      -0.505441       -13.7538 
  68   1.0000      -0.499642       -13.5959 
  69   1.0000      -0.498683       -13.5699 
  70   1.0000      -0.490349       -13.3431 
  71   1.0000      -0.486823       -13.2471 
  72   1.0000      -0.478404       -13.0180 
  73   1.0000      -0.476961       -12.9788 
  74   1.0000      -0.469028       -12.7629 
  75   1.0000      -0.467373       -12.7179 
  76   1.0000      -0.461915       -12.5694 
  77   1.0000      -0.461074       -12.5464 
  78   1.0000      -0.457678       -12.4540 
  79   1.0000      -0.452788       -12.3210 
  80   1.0000      -0.450627       -12.2622 
  81   1.0000      -0.449037       -12.2189 
  82   1.0000      -0.446930       -12.1616 
  83   1.0000      -0.441433       -12.0120 
  84   1.0000      -0.439583       -11.9617 
  85   1.0000      -0.438062       -11.9203 
  86   1.0000      -0.433914       -11.8074 
  87   1.0000      -0.425335       -11.5740 
  88   1.0000      -0.419223       -11.4076 
  89   1.0000      -0.416246       -11.3266 
  90   1.0000      -0.412693       -11.2299 
  91   1.0000      -0.399711       -10.8767 
  92   1.0000      -0.393347       -10.7035 
  93   1.0000      -0.370371       -10.0783 
  94   1.0000      -0.363340        -9.8870 
  95   1.0000      -0.340401        -9.2628 
  96   1.0000      -0.291924        -7.9437 
  97   1.0000      -0.288612        -7.8535 
  98   1.0000      -0.261634        -7.1194 
  99   1.0000      -0.250996        -6.8299 
 100   1.0000      -0.241562        -6.5732 
 101   0.0000       0.008065         0.2195 
 102   0.0000       0.026916         0.7324 
 103   0.0000       0.033566         0.9134 
 104   0.0000       0.056444         1.5359 
 105   0.0000       0.060249         1.6395 
 106   0.0000       0.086580         2.3560 
 107   0.0000       0.097523         2.6537 
 108   0.0000       0.108356         2.9485 
 109   0.0000       0.110698         3.0123 
 110   0.0000       0.119896         3.2625 
 111   0.0000       0.136882         3.7247 

                 SPIN DOWN ORBITALS
  NO   OCC          E(Eh)            E(eV) 
   0   1.0000     -24.742563      -673.2794 
   1   1.0000     -24.741389      -673.2474 
   2   1.0000     -24.740602      -673.2260 
   3   1.0000     -24.739673      -673.2007 
   4   1.0000     -24.739465      -673.1951 
   5   1.0000     -24.739064      -673.1842 
   6   1.0000     -24.738902      -673.1797 
   7   1.0000     -24.733729      -673.0390 
   8   1.0000     -24.733560      -673.0344 
   9   1.0000     -24.733044      -673.0203 
  10   1.0000     -24.718531      -672.6254 
  11   1.0000     -24.716157      -672.5608 
  12   1.0000     -24.699505      -672.1077 
  13   1.0000     -24.699073      -672.0959 
  14   1.0000     -19.095351      -519.6109 
  15   1.0000     -19.071678      -518.9667 
  16   1.0000     -19.068916      -518.8916 
  17   1.0000     -10.454308      -284.4762 
  18   1.0000     -10.397673      -282.9351 
  19   1.0000     -10.395608      -282.8789 
  20   1.0000     -10.393807      -282.8299 
  21   1.0000     -10.372317      -282.2451 
  22   1.0000     -10.338426      -281.3229 
  23   1.0000     -10.305841      -280.4362 
  24   1.0000     -10.262119      -279.2465 
  25   1.0000      -1.357383       -36.9363 
  26   1.0000      -1.328627       -36.1538 
  27   1.0000      -1.311137       -35.6778 
  28   1.0000      -1.307046       -35.5665 
  29   1.0000      -1.294862       -35.2350 
  30   1.0000      -1.270824       -34.5809 
  31   1.0000      -1.267735       -34.4968 
  32   1.0000      -1.264631       -34.4123 
  33   1.0000      -1.260289       -34.2942 
  34   1.0000      -1.257468       -34.2175 
  35   1.0000      -1.250739       -34.0343 
  36   1.0000      -1.246537       -33.9200 
  37   1.0000      -1.233465       -33.5643 
  38   1.0000      -1.207866       -32.8677 
  39   1.0000      -1.036309       -28.1994 
  40   1.0000      -0.982785       -26.7430 
  41   1.0000      -0.956306       -26.0224 
  42   1.0000      -0.841268       -22.8921 
  43   1.0000      -0.812395       -22.1064 
  44   1.0000      -0.787769       -21.4363 
  45   1.0000      -0.749658       -20.3992 
  46   1.0000      -0.708536       -19.2802 
  47   1.0000      -0.684763       -18.6333 
  48   1.0000      -0.659090       -17.9347 
  49   1.0000      -0.646139       -17.5823 
  50   1.0000      -0.644488       -17.5374 
  51   1.0000      -0.638017       -17.3613 
  52   1.0000      -0.620921       -16.8961 
  53   1.0000      -0.618930       -16.8419 
  54   1.0000      -0.616247       -16.7689 
  55   1.0000      -0.605393       -16.4736 
  56   1.0000      -0.598847       -16.2954 
  57   1.0000      -0.591927       -16.1072 
  58   1.0000      -0.589906       -16.0522 
  59   1.0000      -0.581292       -15.8177 
  60   1.0000      -0.570190       -15.5157 
  61   1.0000      -0.556018       -15.1300 
  62   1.0000      -0.553125       -15.0513 
  63   1.0000      -0.515460       -14.0264 
  64   1.0000      -0.509441       -13.8626 
  65   1.0000      -0.507937       -13.8217 
  66   1.0000      -0.505735       -13.7617 
  67   1.0000      -0.499429       -13.5901 
  68   1.0000      -0.498285       -13.5590 
  69   1.0000      -0.497304       -13.5323 
  70   1.0000      -0.489200       -13.3118 
  71   1.0000      -0.483907       -13.1678 
  72   1.0000      -0.477615       -12.9966 
  73   1.0000      -0.472495       -12.8572 
  74   1.0000      -0.468709       -12.7542 
  75   1.0000      -0.466036       -12.6815 
  76   1.0000      -0.461517       -12.5585 
  77   1.0000      -0.457965       -12.4619 
  78   1.0000      -0.456108       -12.4113 
  79   1.0000      -0.450785       -12.2665 
  80   1.0000      -0.449007       -12.2181 
  81   1.0000      -0.447378       -12.1738 
  82   1.0000      -0.445247       -12.1158 
  83   1.0000      -0.440377       -11.9833 
  84   1.0000      -0.439434       -11.9576 
  85   1.0000      -0.437100       -11.8941 
  86   1.0000      -0.433027       -11.7833 
  87   1.0000      -0.424476       -11.5506 
  88   1.0000      -0.417673       -11.3655 
  89   1.0000      -0.415518       -11.3068 
  90   1.0000      -0.412457       -11.2235 
  91   1.0000      -0.397527       -10.8173 
  92   1.0000      -0.393185       -10.6991 
  93   1.0000      -0.368773       -10.0348 
  94   1.0000      -0.363288        -9.8856 
  95   1.0000      -0.336764        -9.1638 
  96   1.0000      -0.291893        -7.9428 
  97   1.0000      -0.261626        -7.1192 
  98   1.0000      -0.251058        -6.8316 
  99   1.0000      -0.241581        -6.5738 
 100   0.0000      -0.128800        -3.5048 
 101   0.0000       0.011002         0.2994 
 102   0.0000       0.029346         0.7985 
 103   0.0000       0.035429         0.9641 
 104   0.0000       0.056544         1.5386 
 105   0.0000       0.063957         1.7404 
 106   0.0000       0.091781         2.4975 
 107   0.0000       0.099014         2.6943 
 108   0.0000       0.109425         2.9776 
 109   0.0000       0.111850         3.0436 
 110   0.0000       0.123088         3.3494 
*Only the first 10 virtual orbitals were printed.

                    ********************************
                    * MULLIKEN POPULATION ANALYSIS *
                    ********************************

--------------------------------------------
MULLIKEN ATOMIC CHARGES AND SPIN POPULATIONS
--------------------------------------------
   0 C :    0.470071    0.000170
   1 C :    0.316653    0.000513
   2 C :    0.313818    0.002737
   3 C :    0.396041   -0.001460
   4 C :    0.064199    0.854485
   5 C :    0.388415    0.005613
   6 C :    0.312421   -0.003344
   7 C :    0.171831   -0.000111
   8 F :   -0.154709    0.000002
   9 F :   -0.152215    0.000008
  10 F :   -0.155429    0.000046
  11 F :   -0.165601   -0.000036
  12 F :   -0.162898    0.000013
  13 F :   -0.169755    0.000759
  14 F :   -0.174093    0.000719
  15 F :   -0.174579    0.001554
  16 F :   -0.170313    0.020747
  17 F :   -0.159002    0.083584
  18 F :   -0.196211    0.001465
  19 F :   -0.181215    0.029040
  20 F :   -0.217887    0.000175
  21 F :   -0.210935    0.002359
  22 O :   -0.453915   -0.000263
  23 O :   -0.505127    0.001112
  24 O :   -0.721473   -0.000021
  25 H :    0.333580    0.000001
  26 H :    0.358329    0.000131
Sum of atomic charges         :   -1.0000000
Sum of atomic spin populations:    1.0000000

-----------------------------------------------------
MULLIKEN REDUCED ORBITAL CHARGES AND SPIN POPULATIONS
-----------------------------------------------------
CHARGE
  0 C s       :     3.019570  s :     3.019570
      pz      :     0.673419  p :     2.119300
      px      :     0.668933
      py      :     0.776948
      dz2     :     0.064351  d :     0.349486
      dxz     :     0.078163
      dyz     :     0.073494
      dx2y2   :     0.068745
      dxy     :     0.064733
      f0      :     0.006546  f :     0.041573
      f+1     :     0.008961
      f-1     :     0.005048
      f+2     :     0.003195
      f-2     :     0.006057
      f+3     :     0.004776
      f-3     :     0.006989

  1 C s       :     3.123692  s :     3.123692
      pz      :     0.632582  p :     2.246606
      px      :     0.722129
      py      :     0.891894
      dz2     :     0.070065  d :     0.284066
      dxz     :     0.061509
      dyz     :     0.056913
      dx2y2   :     0.039822
      dxy     :     0.055757
      f0      :     0.005207  f :     0.028983
      f+1     :     0.006229
      f-1     :     0.002968
      f+2     :     0.004713
      f-2     :     0.004391
      f+3     :     0.002824
      f-3     :     0.002650

  2 C s       :     3.146212  s :     3.146212
      pz      :     0.585573  p :     2.221288
      px      :     0.717715
      py      :     0.917999
      dz2     :     0.076328  d :     0.289831
      dxz     :     0.053923
      dyz     :     0.065731
      dx2y2   :     0.035118
      dxy     :     0.058731
      f0      :     0.006340  f :     0.028851
      f+1     :     0.004692
      f-1     :     0.003378
      f+2     :     0.004962
      f-2     :     0.005238
      f+3     :     0.002199
      f-3     :     0.002042

  3 C s       :     3.105968  s :     3.105968
      pz      :     0.621228  p :     2.173544
      px      :     0.683988
      py      :     0.868328
      dz2     :     0.073815  d :     0.295500
      dxz     :     0.058541
      dyz     :     0.056399
      dx2y2   :     0.045557
      dxy     :     0.061188
      f0      :     0.005318  f :     0.028947
      f+1     :     0.006053
      f-1     :     0.003016
      f+2     :     0.004798
      f-2     :     0.004552
      f+3     :     0.002601
      f-3     :     0.002609

  4 C s       :     3.362877  s :     3.362877
      pz      :     0.628976  p :     2.415100
      px      :     0.895197
      py      :     0.890927
      dz2     :     0.030131  d :     0.141822
      dxz     :     0.033816
      dyz     :     0.043271
      dx2y2   :     0.015255
      dxy     :     0.019348
      f0      :     0.003631  f :     0.016002
      f+1     :     0.003725
      f-1     :     0.003743
      f+2     :     0.001326
      f-2     :     0.001457
      f+3     :     0.000944
      f-3     :     0.001177

  5 C s       :     3.114120  s :     3.114120
      pz      :     0.671553  p :     2.184467
      px      :     0.637209
      py      :     0.875705
      dz2     :     0.055092  d :     0.284272
      dxz     :     0.070508
      dyz     :     0.048949
      dx2y2   :     0.045218
      dxy     :     0.064505
      f0      :     0.005695  f :     0.028725
      f+1     :     0.005491
      f-1     :     0.003840
      f+2     :     0.004136
      f-2     :     0.001954
      f+3     :     0.002893
      f-3     :     0.004717

  6 C s       :     3.150576  s :     3.150576
      pz      :     0.670864  p :     2.260558
      px      :     0.617189
      py      :     0.972504
      dz2     :     0.043029  d :     0.249649
      dxz     :     0.058921
      dyz     :     0.047392
      dx2y2   :     0.046065
      dxy     :     0.054243
      f0      :     0.005650  f :     0.026796
      f+1     :     0.003512
      f-1     :     0.003478
      f+2     :     0.004194
      f-2     :     0.002362
      f+3     :     0.003118
      f-3     :     0.004483

  7 C s       :     3.063154  s :     3.063154
      pz      :     0.816065  p :     2.493650
      px      :     0.776964
      py      :     0.900622
      dz2     :     0.012543  d :     0.245748
      dxz     :     0.069460
      dyz     :     0.016576
      dx2y2   :     0.073090
      dxy     :     0.074078
      f0      :     0.002507  f :     0.025616
      f+1     :     0.002365
      f-1     :     0.001115
      f+2     :     0.002373
      f-2     :     0.002774
      f+3     :     0.007028
      f-3     :     0.007455

  8 F s       :     3.910498  s :     3.910498
      pz      :     1.803525  p :     5.226422
      px      :     1.551975
      py      :     1.870922
      dz2     :     0.002288  d :     0.017008
      dxz     :     0.005526
      dyz     :     0.001048
      dx2y2   :     0.004555
      dxy     :     0.003592
      f0      :     0.000089  f :     0.000781
      f+1     :     0.000135
      f-1     :     0.000014
      f+2     :     0.000185
      f-2     :     0.000098
      f+3     :     0.000131
      f-3     :     0.000131

  9 F s       :     3.908875  s :     3.908875
      pz      :     1.471623  p :     5.225374
      px      :     1.874769
      py      :     1.878982
      dz2     :     0.008287  d :     0.017171
      dxz     :     0.003860
      dyz     :     0.004249
      dx2y2   :     0.000321
      dxy     :     0.000454
      f0      :     0.000329  f :     0.000796
      f+1     :     0.000188
      f-1     :     0.000205
      f+2     :     0.000027
      f-2     :     0.000041
      f+3     :     0.000003
      f-3     :     0.000002

 10 F s       :     3.909879  s :     3.909879
      pz      :     1.892584  p :     5.227843
      px      :     1.739843
      py      :     1.595416
      dz2     :     0.002467  d :     0.016924
      dxz     :     0.001352
      dyz     :     0.002370
      dx2y2   :     0.004045
      dxy     :     0.006689
      f0      :     0.000066  f :     0.000783
      f+1     :     0.000066
      f-1     :     0.000109
      f+2     :     0.000016
      f-2     :     0.000102
      f+3     :     0.000245
      f-3     :     0.000179

 11 F s       :     3.914041  s :     3.914041
      pz      :     1.748906  p :     5.233923
      px      :     1.614064
      py      :     1.870953
      dz2     :     0.002426  d :     0.016902
      dxz     :     0.005969
      dyz     :     0.001796
      dx2y2   :     0.003347
      dxy     :     0.003364
      f0      :     0.000078  f :     0.000735
      f+1     :     0.000151
      f-1     :     0.000026
      f+2     :     0.000170
      f-2     :     0.000139
      f+3     :     0.000075
      f-3     :     0.000095

 12 F s       :     3.911673  s :     3.911673
      pz      :     1.544089  p :     5.233458
      px      :     1.833565
      py      :     1.855804
      dz2     :     0.006036  d :     0.017018
      dxz     :     0.004415
      dyz     :     0.004469
      dx2y2   :     0.000907
      dxy     :     0.001191
      f0      :     0.000182  f :     0.000749
      f+1     :     0.000190
      f-1     :     0.000184
      f+2     :     0.000069
      f-2     :     0.000105
      f+3     :     0.000010
      f-3     :     0.000008

 13 F s       :     3.914910  s :     3.914910
      pz      :     1.631454  p :     5.237128
      px      :     1.722546
      py      :     1.883128
      dz2     :     0.003963  d :     0.016979
      dxz     :     0.006210
      dyz     :     0.002868
      dx2y2   :     0.001848
      dxy     :     0.002090
      f0      :     0.000100  f :     0.000738
      f+1     :     0.000235
      f-1     :     0.000067
      f+2     :     0.000136
      f-2     :     0.000138
      f+3     :     0.000028
      f-3     :     0.000035

 14 F s       :     3.915310  s :     3.915310
      pz      :     1.593159  p :     5.241227
      px      :     1.747277
      py      :     1.900791
      dz2     :     0.004700  d :     0.016825
      dxz     :     0.006181
      dyz     :     0.002821
      dx2y2   :     0.001505
      dxy     :     0.001619
      f0      :     0.000124  f :     0.000730
      f+1     :     0.000265
      f-1     :     0.000069
      f+2     :     0.000123
      f-2     :     0.000109
      f+3     :     0.000018
      f-3     :     0.000022

 15 F s       :     3.913488  s :     3.913488
      pz      :     1.554923  p :     5.243403
      px      :     1.828167
      py      :     1.860313
      dz2     :     0.005764  d :     0.016948
      dxz     :     0.004531
      dyz     :     0.004335
      dx2y2   :     0.001001
      dxy     :     0.001317
      f0      :     0.000168  f :     0.000740
      f+1     :     0.000196
      f-1     :     0.000169
      f+2     :     0.000073
      f-2     :     0.000112
      f+3     :     0.000013
      f-3     :     0.000010

 16 F s       :     3.913653  s :     3.913653
      pz      :     1.733275  p :     5.239187
      px      :     1.626874
      py      :     1.879038
      dz2     :     0.002629  d :     0.016746
      dxz     :     0.006143
      dyz     :     0.001894
      dx2y2   :     0.003043
      dxy     :     0.003037
      f0      :     0.000078  f :     0.000728
      f+1     :     0.000168
      f-1     :     0.000027
      f+2     :     0.000174
      f-2     :     0.000137
      f+3     :     0.000064
      f-3     :     0.000081

 17 F s       :     3.917202  s :     3.917202
      pz      :     1.493179  p :     5.223880
      px      :     1.846653
      py      :     1.884048
      dz2     :     0.007471  d :     0.017204
      dxz     :     0.004387
      dyz     :     0.004388
      dx2y2   :     0.000435
      dxy     :     0.000523
      f0      :     0.000276  f :     0.000716
[...]
      f+2     :    -0.000003
      f-2     :     0.000000
      f+3     :    -0.000003
      f-3     :     0.000000

 17 F s       :     0.002073  s :     0.002073
      pz      :    -0.008397  p :     0.096645
      px      :     0.102857
      py      :     0.002185
      dz2     :     0.000654  d :     0.010101
      dxz     :     0.009221
      dyz     :     0.000199
      dx2y2   :     0.000026
      dxy     :     0.000001
      f0      :     0.000014  f :     0.000531
      f+1     :     0.000499
      f-1     :     0.000014
      f+2     :     0.000003
      f-2     :     0.000000
      f+3     :     0.000000
      f-3     :     0.000000

 18 F s       :    -0.000036  s :    -0.000036
      pz      :     0.000186  p :     0.003870
      px      :     0.002587
      py      :     0.001098
      dz2     :    -0.000043  d :    -0.000128
      dxz     :    -0.000044
      dyz     :    -0.000060
      dx2y2   :     0.000001
      dxy     :     0.000017
      f0      :    -0.000002  f :    -0.000008
      f+1     :    -0.000003
      f-1     :    -0.000004
      f+2     :    -0.000000
      f-2     :     0.000001
      f+3     :     0.000000
      f-3     :     0.000000

 19 F s       :     0.002127  s :     0.002127
      pz      :     0.000995  p :     0.025440
      px      :     0.004853
      py      :     0.019592
      dz2     :     0.000125  d :    -0.000025
      dxz     :    -0.000023
      dyz     :     0.000011
      dx2y2   :    -0.000076
      dxy     :    -0.000062
      f0      :    -0.000000  f :    -0.000005
      f+1     :     0.000002
      f-1     :     0.000002
      f+2     :    -0.000000
      f-2     :    -0.000001
      f+3     :    -0.000006
      f-3     :    -0.000001

 20 F s       :     0.000080  s :     0.000080
      pz      :    -0.000072  p :     0.002621
      px      :     0.002022
      py      :     0.000671
      dz2     :     0.000005  d :     0.000199
      dxz     :     0.000097
      dyz     :     0.000065
      dx2y2   :     0.000031
      dxy     :     0.000000
      f0      :    -0.000000  f :     0.000010
      f+1     :     0.000004
      f-1     :     0.000004
      f+2     :     0.000002
      f-2     :     0.000000
      f+3     :     0.000000
      f-3     :     0.000000

 21 F s       :     0.000333  s :     0.000333
      pz      :    -0.000057  p :     0.000953
      px      :     0.000592
      py      :     0.000418
      dz2     :     0.000039  d :     0.000191
      dxz     :    -0.000000
      dyz     :     0.000001
      dx2y2   :     0.000108
      dxy     :     0.000044
      f0      :     0.000000  f :     0.000010
      f+1     :     0.000000
      f-1     :     0.000000
      f+2     :     0.000000
      f-2     :     0.000000
      f+3     :     0.000006
      f-3     :     0.000003

 22 O s       :     0.000070  s :     0.000070
      pz      :     0.002756  p :     0.004334
      px      :     0.000144
      py      :     0.001434
      dz2     :     0.000017  d :     0.000042
      dxz     :     0.000001
      dyz     :     0.000017
      dx2y2   :    -0.000001
      dxy     :     0.000008
      f0      :     0.000001  f :     0.000004
      f+1     :     0.000000
      f-1     :     0.000000
      f+2     :    -0.000001
      f-2     :     0.000002
      f+3     :    -0.000000
      f-3     :     0.000001

 23 O s       :     0.000015  s :     0.000015
      pz      :     0.000678  p :     0.001167
      px      :     0.000690
      py      :    -0.000201
      dz2     :    -0.000001  d :     0.000002
      dxz     :     0.000001
      dyz     :     0.000005
      dx2y2   :    -0.000002
      dxy     :    -0.000000
      f0      :     0.000000  f :     0.000001
      f+1     :    -0.000000
      f-1     :    -0.000000
      f+2     :     0.000000
      f-2     :     0.000001
      f+3     :     0.000000
      f-3     :    -0.000000

 24 O s       :     0.000001  s :     0.000001
      pz      :     0.000026  p :     0.000078
      px      :    -0.000001
      py      :     0.000053
      dz2     :     0.000000  d :     0.000000
      dxz     :    -0.000000
      dyz     :     0.000001
      dx2y2   :    -0.000000
      dxy     :    -0.000000
      f0      :    -0.000000  f :    -0.000000
      f+1     :    -0.000000
      f-1     :    -0.000000
      f+2     :    -0.000000
      f-2     :     0.000000
      f+3     :    -0.000000
      f-3     :     0.000000

 25 H s       :    -0.000003  s :    -0.000003
      pz      :     0.000001  p :    -0.000001
      px      :    -0.000000
      py      :    -0.000001

 26 H s       :     0.000026  s :     0.000026
      pz      :    -0.000002  p :    -0.000002
      px      :     0.000000
      py      :    -0.000000



                      *****************************
                      * MAYER POPULATION ANALYSIS *
                      *****************************

  NA   - Mulliken gross atomic population
  ZA   - Total nuclear charge
  QA   - Mulliken gross atomic charge
  VA   - Mayer's total valence
  BVA  - Mayer's bonded valence
  FA   - Mayer's free valence

  ATOM       NA         ZA         QA         VA         BVA        FA
  0 C      5.5234     6.0000     0.4766     4.5079     4.5079     0.0000
  1 C      5.6725     6.0000     0.3275     4.1729     4.1728     0.0000
  2 C      5.6975     6.0000     0.3025     4.0453     4.0442     0.0010
  3 C      5.6086     6.0000     0.3914     4.2231     4.2203     0.0028
  4 C      5.8972     6.0000     0.1028     3.8923     3.3088     0.5835
  5 C      5.6484     6.0000     0.3516     4.0777     4.0753     0.0024
  6 C      5.6638     6.0000     0.3362     3.8355     3.8353     0.0002
  7 C      5.8012     6.0000     0.1988     4.5589     4.5589     0.0000
  8 F      9.1557     9.0000    -0.1557     1.1621     1.1621     0.0000
  9 F      9.1535     9.0000    -0.1535     1.1646     1.1646     0.0000
 10 F      9.1540     9.0000    -0.1540     1.1651     1.1651     0.0000
 11 F      9.1669     9.0000    -0.1669     1.1508     1.1508     0.0000
 12 F      9.1655     9.0000    -0.1655     1.1499     1.1499     0.0000
 13 F      9.1783     9.0000    -0.1783     1.1395     1.1395     0.0000
 14 F      9.1776     9.0000    -0.1776     1.1435     1.1435     0.0000
 15 F      9.1721     9.0000    -0.1721     1.1375     1.1373     0.0001
 16 F      9.1781     9.0000    -0.1781     1.1337     1.1336     0.0001
 17 F      9.1501     9.0000    -0.1501     1.1856     1.1745     0.0111
 18 F      9.1945     9.0000    -0.1945     1.1100     1.1100     0.0000
 19 F      9.1947     9.0000    -0.1947     1.1022     1.1015     0.0007
 20 F      9.2158     9.0000    -0.2158     1.0656     1.0656     0.0000
 21 F      9.2131     9.0000    -0.2131     1.0821     1.0821     0.0000
 22 O      8.4541     8.0000    -0.4541     2.0222     2.0222     0.0000
 23 O      8.5116     8.0000    -0.5116     1.9033     1.9033     0.0000
 24 O      8.7265     8.0000    -0.7265     1.7473     1.7473     0.0000
 25 H      0.6751     1.0000     0.3249     0.9160     0.9160     0.0000
 26 H      0.6501     1.0000     0.3499     0.9559     0.9559     0.0000

  Mayer bond orders larger than 0.100000
B(  0-C ,  1-C ) :   0.9648 B(  0-C ,  8-F ) :   1.1449 B(  0-C ,  9-F ) :   1.1541 
B(  0-C , 10-F ) :   1.1460 B(  1-C ,  2-C ) :   0.9117 B(  1-C , 11-F ) :   1.0903 
B(  1-C , 12-F ) :   1.0959 B(  2-C ,  3-C ) :   0.9139 B(  2-C , 13-F ) :   1.0599 
B(  2-C , 14-F ) :   1.0706 B(  3-C ,  4-C ) :   1.0266 B(  3-C , 15-F ) :   1.0979 
B(  3-C , 16-F ) :   1.0709 B(  4-C ,  5-C ) :   1.0121 B(  4-C , 17-F ) :   1.1237 
B(  5-C ,  6-C ) :   0.8966 B(  5-C , 18-F ) :   1.0556 B(  5-C , 19-F ) :   1.0553 
B(  6-C ,  7-C ) :   0.8634 B(  6-C , 20-F ) :   1.0224 B(  6-C , 21-F ) :   1.0409 
B(  7-C , 22-O ) :   1.9334 B(  7-C , 23-O ) :   1.7046 B( 23-O , 26-H ) :   0.1191 
B( 24-O , 25-H ) :   0.9044 B( 24-O , 26-H ) :   0.8276 

-------
TIMINGS
-------

Total SCF time: 0 days 0 hours 0 min 42 sec 

Total time                  ....      42.164 sec
Sum of individual times     ....      41.423 sec  ( 98.2%)

SCF preparation             ....       1.271 sec  (  3.0%)
Fock matrix formation       ....      33.014 sec  ( 78.3%)
  Startup                   ....       0.178 sec  (  0.5% of F)
  Split-RI-J                ....       2.363 sec  (  7.2% of F)
  Chain of spheres X        ....      22.653 sec  ( 68.6% of F)
  XC integration            ....       5.201 sec  ( 15.8% of F)
    XC Preparation          ....       0.000 sec  (  0.0% of XC)
    Basis function eval.    ....       0.489 sec  (  9.4% of XC)
    Density eval.           ....       1.102 sec  ( 21.2% of XC)
    XC-Functional eval.     ....       0.046 sec  (  0.9% of XC)
    XC-Potential eval.      ....       1.041 sec  ( 20.0% of XC)
  CPCM terms                ....       2.119 sec  (  6.4% of F)
Diagonalization             ....       0.000 sec  (  0.0%)
Density matrix formation    ....       0.606 sec  (  1.4%)
Total Energy calculation    ....       0.327 sec  (  0.8%)
Population analysis         ....       0.534 sec  (  1.3%)
Orbital Transformation      ....       0.947 sec  (  2.2%)
Orbital Orthonormalization  ....       0.000 sec  (  0.0%)
DIIS solution               ....       3.053 sec  (  7.2%)
SOSCF solution              ....       1.672 sec  (  4.0%)
Finished LeanSCF after  42.7 sec

Maximum memory used throughout the entire LEANSCF-calculation: 118.1 MB


-------------------------------------------------------------------------------
                          DFT DISPERSION CORRECTION                            
                                                                               
                              DFTD3 V3.1  Rev 1                                
                          USING Becke-Johnson damping                          
-------------------------------------------------------------------------------
The B3LYP functional is recognized
Active option DFTDOPT                   ...         4   

molecular C6(AA) [au] = 7395.748239 


            DFT-D V3
 parameters
 s6 scaling factor         :     1.0000 
 a1 scaling factor         :     0.3981 
 s8 scaling factor         :     1.9889 
 a2 scaling factor         :     4.4211 
 ad hoc parameters k1-k3   :    16.0000     1.3333    -4.0000 

 Edisp/kcal,au: -28.852470908172  -0.045979334214 
 E6   /kcal   : -13.833252045 
 E8   /kcal   : -15.019218863 
 % E8         :  52.055225741 

-------------------------   ----------------
Dispersion correction           -0.045979334
-------------------------   ----------------


-------------------------   --------------------
FINAL SINGLE POINT ENERGY     -1929.732085201511
-------------------------   --------------------

                                *** OPTIMIZATION RUN DONE ***



           ************************************************************
           *        Program running with 20 parallel MPI-processes    *
           *              working on a common directory               *
           ************************************************************

------------------------------------------------------------------------------
                              ORCA PROPERTY CALCULATIONS
------------------------------------------------------------------------------

GBWName                                 ... rf_mecn_1H2O_opt_B3L_con_002.gbw
Number of atoms                         ...     27
Number of basis functions               ...    787
Max core memory                         ...   8000 MB

Electric properties:
Dipole moment                           ... YES
Quadrupole moment                       ...  NO
Static polarizability (Dipole/Dipole)   ...  NO
Static polarizability (Dipole/Quad.)    ...  NO
Static polarizability (Quad./Quad.)     ...  NO
Static polarizability (Velocity)        ...  NO

Atomic electric properties:
Dipole moment                           ...  NO
Quadrupole moment                       ...  NO
Static polarizability                   ...  NO

Choice of electric origin               ... Center of mass
Position of electric origin             ...    12.165094    44.737418     3.393603

General magnetic properties:
Magnetizability                         ...  NO

EPR properties:
g-Tensor (aka g-matrix)                 ...  NO
Zero-Field splitting spin-orbit         ...  NO
Zero-field splitting spin-spin          ...  NO
Hyperfine couplings                     ...  NO (   0 nuclei)
Quadrupole couplings                    ...  NO (   0 nuclei)
Contact density                         ...  NO (   0 nuclei)

NMR properties:
Chemical shifts                         ...  NO (   0 nuclei)
Spin-rotation constants                 ...  NO (   0 nuclei)
Spin-spin couplings                     ...  NO (   0 nuclei,    0 pairs)

Choice of magnetic origin               ... GIAO
Position of magnetic origin             ...     0.000000     0.000000     0.000000

Properties with geometric perturbations:
SCF Hessian                             ...  NO
IR spectrum                             ...  NO
VCD spectrum                            ...  NO
X-ray spectroscopy properties:
SCF XES/XAS/RIXS spectra                ...  NO


-------------
DIPOLE MOMENT
-------------

Method             : SCF
Type of density    : Electron Density
Multiplicity       :   2
Irrep              :   0
Energy             : -1929.6861058672971012 Eh
Relativity type    : 
Basis              : AO
                                X                 Y                 Z
Electronic contribution:      3.520821911      29.744621683       3.573110247
Nuclear contribution   :     -3.971462927     -21.381803193      -3.880365537
                        -----------------------------------------
Total Dipole Moment    :     -0.450641015       8.362818490      -0.307255291
                        -----------------------------------------
Magnitude (a.u.)       :      8.380585673
Magnitude (Debye)      :     21.301755903



--------------------
Rotational spectrum 
--------------------
 
Rotational constants in cm-1:             0.015963             0.004000             0.003717 
Rotational constants in MHz :           478.556758           119.918711           111.431948 

Dipole components along the rotational axes: 
x,y,z [a.u.] :     7.933560    -2.578077    -0.803962 
x,y,z [Debye]:    20.165508    -6.552951    -2.043510 

 

Dipole moment calculation done in   0.1 sec 

Maximum memory used throughout the entire PROP-calculation: 61.9 MB

--------------------------------
SUGGESTED CITATIONS FOR THIS RUN
--------------------------------

Below you find a list of papers that are relevant to this ORCA run
We neither can nor want to force you to cite these papers, but we appreciate if you do
You receive ORCA, which is the product of decades of hard work by many enthusiastic individuals, for free
The only thing we kindly ask in return is that you cite our papers,
We deeply appreciate it, if you show your appreciation for ORCA by not just citing the generic ORCA reference.

Please note that relegating all ORCA citations to the supporting information does *not* help us.
SI sections are not indexed - citations you put there will not count into any citation statistics
But we need these citations in order to attract the funding resources that allow us to do what we are doing

Therefore, if you are a happy ORCA user, please consider citing a few of the papers listed below in the main body of your paper

In addition to the list printed below, the program has created the file rf_mecn_1H2O_opt_B3L_con_002.bibtex that contains the list in bibtex format
You can import this file easily into all common literature databanks and citation aid programs


List of essential papers. We consider these as the minimum necessary citations

  1. Neese,F.
     Software update: the ORCA program system, version 5.0
     WIRES Comput. Molec. Sci., 2022 12(1)e1606
     doi.org/10.1002/wcms.1606

List of papers to cite with high priority. The work reported in these papers was absolutely
necessary for this run to complete.
Our perspective: the developers of density functionals and basis sets usually get cited in chemistry papers
Good! But without the algorithms to do something with them, the functionals or basis sets would not do anything.
Hence, in our opinion, the algorithm design and method developments papers are equally worthy of getting cited

  1. Neese,F.
     An improvement of the resolution of the identity approximation for the formation of the Coulomb matrix
     J. Comp. Chem., 2003 24(14)1740-1747
     doi.org/10.1002/jcc.10318
  2. Neese,F.; Wennmohs,F.; Hansen,A.; Becker,U.
     Efficient, approximate and parallel Hartree-Fock and hybrid DFT calculations. A 'chain-of-spheres' algorithm for the Hartree-Fock exchange
     Chem. Phys., 2009 356(1-3)98-109
     doi.org/10.1016/j.chemphys.2008.10.036
  3. Garcia-Rates,M.; Neese,F.
     Effect of the Solute Cavity on the Solvation Energy and its Derivatives within the Framework of the Gaussian Charge Scheme
     J. Comput. Chem., 2020 41 922-939
     doi.org/10.1002/jcc.26139
  4. Helmich-Paris,B.; de Souza,B.; Neese,F.; Izsák,R.
     An improved chain of spheres for exchange algorithm
     J. Chem. Phys., 2021 155 104109
     doi.org/doi: 10.1063/5.0058766.
  5. Neese,F.
     The SHARK Integral Generation and Digestion System
     J. Comp. Chem., 2022  1-16
     doi.org/10.1002/jcc.26942
  6. Grimme,S.; Antony,J.; Ehrlich,S.; Krieg,H.
     A consistent and accurate ab initio parametrization of density functional dispersion correction (DFT-D) for the 94 elements H-Pu
     J. Chem. Phys., 2010 132 154104
     doi.org/10.1063/1.3382344
  7. Grimme,S.; Ehrlich,S.; Goerigk,L.
     Effect of the damping function in dispersion corrected density functional theory
     J. Comput. Chem., 2011 32(7)1456-1465
     doi.org/10.1002/jcc.21759

List of suggested additional citations. These are papers that are important in the 'surrounding' of 
of this run, or papers that preceded the highly important papers. If you like your results we are grateful for a citation.

  1. Izsak,R.; Neese,F.
     An overlap fitted chain of spheres exchange method
     J. Chem. Phys., 2011 135 144105
     doi.org/10.1063/1.3646921
  2. Izsak,R.; Hansen,A.; Neese,F.
     The resolution of identity and chain of spheres approximations for the LPNO-CCSD singles Fock term
     Molec. Phys., 2012 110 2413-2417
     doi.org/10.1080/00268976.2012.687466
  3. Neese,F.
     The ORCA program system
     WIRES Comput. Molec. Sci., 2012 2(1)73-78
     doi.org/10.1002/wcms.81
  4. Izsak,R.; Neese,F.; Klopper,W.
     Robust fitting techniques in the chain of spheres approximation to the Fock exchange: The role of the complementary space
     J. Chem. Phys., 2013 139 
     doi.org/10.1063/1.4819264
  5. Neese,F.
     Software update: the ORCA program system, version 4.0
     WIRES Comput. Molec. Sci., 2018 8(1)1-6
     doi.org/10.1002/wcms.1327
  6. Neese,F.; Wennmohs,F.; Becker,U.; Riplinger,C.
     The ORCA quantum chemistry program package
     J. Chem. Phys., 2020 152 Art. No. L224108
     doi.org/10.1063/5.0004608

List of optional additional citations

  1. Neese,F.
     Approximate second-order SCF convergence for spin unrestricted wavefunctions
     Chem. Phys. Lett., 2000 325(1-3)93-98
     doi.org/10.1016/s0009-2614(00)00662-x

Timings for individual modules:

Sum of individual times          ...     3821.382 sec (=  63.690 min)
Startup calculation              ...      161.462 sec (=   2.691 min)   4.2 %
SCF iterations                   ...     2731.026 sec (=  45.517 min)  71.5 %
Property calculations            ...        0.845 sec (=   0.014 min)   0.0 %
SCF Gradient evaluation          ...      927.165 sec (=  15.453 min)  24.3 %
Geometry relaxation              ...        0.884 sec (=   0.015 min)   0.0 %
                             ****ORCA TERMINATED NORMALLY****
TOTAL RUN TIME: 0 days 1 hours 4 minutes 9 seconds 293 msec
