
                                 *****************
                                 * O   R   C   A *
                                 *****************

                                            #,                                       
                                            ###                                      
                                            ####                                     
                                            #####                                    
                                            ######                                   
                                           ########,                                 
                                     ,,################,,,,,                         
                               ,,#################################,,                 
                          ,,##########################################,,             
                       ,#########################################, ''#####,          
                    ,#############################################,,   '####,        
                  ,##################################################,,,,####,       
                ,###########''''           ''''###############################       
              ,#####''   ,,,,##########,,,,          '''####'''          '####       
            ,##' ,,,,###########################,,,                        '##       
           ' ,,###''''                  '''############,,,                           
         ,,##''                                '''############,,,,        ,,,,,,###''
      ,#''                                            '''#######################'''  
     '                                                          ''''####''''         
             ,#######,   #######,   ,#######,      ##                                
            ,#'     '#,  ##    ##  ,#'     '#,    #''#        ,####,   ,####,        
            ##       ##  ##   ,#'  ##            #'  '#       #'       #'  '#        
            ##       ##  #######   ##           ,######,      #####,   #    #        
            '#,     ,#'  ##    ##  '#,     ,#' ,#      #,     #,   #   #,  ,#        
             '#######'   ##     ##  '#######'  #'      '#     '####' # '####'        



                #########################################################
                #                        -***-                          #
                #          Department of theory and spectroscopy        #
                #                                                       #
                #                      Frank Neese                      #
                #                                                       #
                #     Directorship, Architecture, Infrastructure        #
                #                    SHARK, DRIVERS                     #
                #        Core code/Algorithms in most modules           #
                #                                                       #
                #        Max Planck Institute fuer Kohlenforschung      #
                #                Kaiser Wilhelm Platz 1                 #
                #                 D-45470 Muelheim/Ruhr                 #
                #                      Germany                          #
                #                                                       #
                #                  All rights reserved                  #
                #                        -***-                          #
                #########################################################


                         Program Version 6.0.1  -  RELEASE   -


 With contributions from (in alphabetic order):
[Max-Planck-Institut fuer Kohlenforschung]                               
  Daniel Aravena         : Magnetic Suceptibility                        
  Michael Atanasov       : Ab Initio Ligand Field Theory (pilot matlab implementation)
  Alexander A. Auer      : GIAO ZORA, VPT2 properties, NMR spectrum      
  Ute Becker             : All parallelization in ORCA, NUMFREQ, NUMCALC 
  Giovanni Bistoni       : ED, misc. LED, open-shell LED, HFLD           
  Martin Brehm           : Molecular dynamics                            
  Dmytro Bykov           : pre 5.0 version of the SCF Hessian            
  Marcos Casanova-Páez   : Triplet and SCS-CIS(D). UHF-(DLPNO)-IP/EA/STEOM-CCSD. UHF-CVS-IP/STEOM-CCSD   
  Vijay G. Chilkuri      : MRCI spin determinant printing, contributions to CSF-ICE 
  Pauline Colinet        : FMM embedding                                 
  Dipayan Datta          : RHF DLPNO-CCSD density                        
  Achintya Kumar Dutta   : EOM-CC, STEOM-CC                              
  Nicolas Foglia         : Exact transition moments, OPA infrastructure, MCD improvements    
  Dmitry Ganyushin       : Spin-Orbit,Spin-Spin,Magnetic field MRCI      
  Miquel Garcia-Rates    : C-PCM and meta-GGA Hessian, CCSD/C-PCM, Gaussian charge scheme 
  Tiago L. C. Gouveia    : GS-ROHF, GS-ROCIS                             
  Yang Guo               : DLPNO-NEVPT2, F12-NEVPT2, CIM, IAO-localization        
  Andreas Hansen         : Spin unrestricted coupled pair/coupled cluster methods 
  Ingolf Harden          : AUTO-CI MPn and infrastructure                
  Benjamin Helmich-Paris : MC-RPA, TRAH-(SCF,CASSCF), AVAS, COSX integrals, SCF dyn. polar. 
  Lee Huntington         : MR-EOM, pCC                                   
  Robert Izsak           : Overlap fitted RIJCOSX, COSX-SCS-MP3, EOM     
  Riya Kayal             : Wick's Theorem for AUTO-CI, AUTO-CI UHF-CCSDT 
  Emily Kempfer          : AUTO-CI, RHF CISDT and CCSDT                  
  Christian Kollmar      : KDIIS, OOCD, Brueckner-CCSD(T), CCSD density, CASPT2, CASPT2-K, improved NEVPT2 
  Axel Koslowski         : Symmetry handling                             
  Simone Kossmann        : meta-GGA functionals, TD-DFT gradient, OOMP2, (MP2 Hessian; deprecated post 5.0) 
  Lucas Lang             : DCDCAS                                        
  Marvin Lechner         : AUTO-CI (C++ implementation), FIC-MRCC        
  Spencer Leger          : CASSCF response                               
  Dagmar Lenk            : GEPOL surface, SMD, ORCA-2-JSON               
  Dimitrios Liakos       : Extrapolation schemes; Compound Job, initial MDCI parallelization 
  Dimitrios Manganas     : Further ROCIS development; embedding schemes. LFT, Crystal Embedding 
  Dimitrios Pantazis     : SARC Basis sets                               
  Anastasios Papadopoulos: AUTO-CI, single reference methods and gradients 
  Taras Petrenko         : pre 6.0 DFT Hessian and TD-DFT gradient, (ASA, deprecated), ECA, 1-Electron XAS/XES, NRVS 
  Peter Pinski           : DLPNO-MP2, DLPNO-MP2 Gradient                 
  Christoph Reimann      : Effective Core Potentials                     
  Marius Retegan         : Local ZFS, SOC                                
  Christoph Riplinger    : Optimizer, TS searches, QM/MM, DLPNO-CCSD(T), (RO)-DLPNO pert. Triples 
  Michael Roemelt        : Original ROCIS implementation                 
  Masaaki Saitow         : Open-shell DLPNO-CCSD energy and density      
  Barbara Sandhoefer     : DKH picture change effects                    
  Kantharuban Sivalingam : CASSCF convergence/infrastructure, NEVPT2 and variants, FIC-MRCI 
  Bernardo de Souza      : ESD, SOC TD-DFT                               
  Georgi L. Stoychev     : AutoAux, RI-MP2 NMR, DLPNO-MP2 response, X2C  
  Van Anh Tran           : RI-MP2 g-tensors                              
  Willem Van den Heuvel  : Paramagnetic NMR                              
  Zikuan Wang            : NOTCH, Electric field optimization            
  Frank Wennmohs         : Technical directorship and infrastructure     
  Hang Xu                : AUTO-CI-Response properties                   
                                                                         
[FACCTs GmbH]                                                            
  Markus Bursch, Miquel Garcia-Rates, Christoph Riplinger, Bernardo de Souza, Georgi L. Stoychev 
                                                                 
  APM, Basis sets (HGBS, AHGBS, def-TZVP (Ac-Lr), def2-XVPD (La-Lu)), CI-OPT, improved COSX, DLPNO-Multilevel,           
  DOCKER, DRACO, updates on ESD, GOAT, IRC, LR-CPCM, MBIS, meta-GGA TD-DFT gradient, ML-optimized integration grids, 
  MM, NACMEs, nearIR, NEB, NEB-TS, NL-DFT gradient (VV10), 2- and 3-layer-ONIOM, interface openCOSMO-RS, QMMM,   
  Crystal-QMMM, SF, symmetry and pop. for TD-DFT, r2SCAN hybrids, SOLVATOR                                   
                                                                         
[Other institutions]                                                     
  V. Asgeirsson          : NEB                                           
  Christoph Bannwarth    : sTDA-DFT, sTD-DFT, PBEh-3c, B97-3c, D3        
  Sebastian Ehlert       : rSCAN, r2SCAN, r2SCAN-3c, D4, dhf basis sets  
  Marvin Friede          : D4 for Fr, Ra, Ac-Lr                          
  Lars Goerigk           : TD-DFT with DH, B97 family of functionals     
  Stefan Grimme          : VdW corrections, initial TS optimization, DFT functionals, gCP, sTDA/sTD-DF 
  Waldemar Hujo          : DFT-NL                                        
  H. Jonsson             : NEB                                           
  Holger Kruse           : gCP                                           
  Marcel Mueller         : wB97X-3c, vDZP basis set                      
  Hagen Neugebauer       : wr2SCAN                                       
  Tobias Risthaus        : range-separated hybrid DFT                    
  Lukas Wittmann         : regularized MP2, r2SCAN double-hybrids, wr2SCAN        
                                                                         
We gratefully acknowledge several colleagues who have allowed us to      
interface, adapt or use parts of their codes:                            
  Ed Valeev, F. Pavosevic, A. Kumar             : LibInt (2-el integral package), F12 methods 
  Garnet Chan, S. Sharma, J. Yang, R. Olivares  : DMRG                   
  Ulf Ekstrom                                   : XCFun DFT Library      
  Mihaly Kallay                                 : mrcc  (arbitrary order and MRCC methods)
  Frank Weinhold                                : gennbo (NPA and NBO analysis)           
  Simon Mueller                                 : openCOSMO-RS                            
  Christopher J. Cramer and Donald G. Truhlar   : smd solvation model                     
  S Lehtola, MJT Oliveira, MAL Marques          : LibXC Library                           
  Liviu Ungur et al                             : ANISO software                          


 Your calculation uses the libint2 library for the computation of 2-el integrals
 For citations please refer to: http://libint.valeyev.net

 Your ORCA version has been built with support for libXC version: 6.2.2
 For citations please refer to: https://libxc.gitlab.io

 This ORCA versions uses:
   CBLAS   interface :  Fast vector & matrix operations
   LAPACKE interface :  Fast linear algebra routines
   SCALAPACK package :  Parallel linear algebra routines
   Shared memory     :  Shared parallel matrices
   BLAS/LAPACK       :  OpenBLAS 0.3.27  USE64BITINT DYNAMIC_ARCH NO_AFFINITY SkylakeX SINGLE_THREADED
        Core in use  :  SkylakeX
   Copyright (c) 2011-2014, The OpenBLAS Project


NOTE: MaxCore=8000 MB was set to SCF,MP2,MDCI,CIPSI,MRCI and CIS
      => If you want to overwrite this, your respective input block should be placed after the MaxCore statement
Your calculation utilizes the atom-pairwise dispersion correction
with the Becke-Johnson damping scheme (D3BJ)


Your calculation utilizes the SMD solvation module
Please cite in your paper:
A.V. Marenich, C.J. Cramer, D.G. Truhlar J. Phys. Chem. B, 113, (2009), 6378 

Warning: RI is on but no J-basis has been assigned. Assigning Def2/J (nothing to worry about!)
================================================================================

----- Orbital basis set information -----
Your calculation utilizes the basis: def2-TZVP
   F. Weigend and R. Ahlrichs, Phys. Chem. Chem. Phys. 7, 3297 (2005).

----- AuxJ basis set information -----
Your calculation utilizes the auxiliary basis: def2/J
   F. Weigend, Phys. Chem. Chem. Phys. 8, 1057 (2006).

================================================================================
                                        WARNINGS
                       Please study these warnings very carefully!
================================================================================



WARNING: SCAN, rSCAN, or r2SCAN functional requested.
  ===> : libXC variant has now been activated.



WARNING: your system is open-shell and RHF/RKS was chosen
  ===> : WILL SWITCH to UHF/UKS


WARNING: Geometry Optimization
  ===> : Switching off AutoStart
         For restart on a previous wavefunction, please use MOREAD

================================================================================
                                       INPUT FILE
================================================================================
NAME = rf_mecn_opt_r2s_C5_D_B.inp
|  1> !r2scanh def2-TZVP opt d3 TightSCF SlowConv defgrid2
|  2> 
|  3> %pal
|  4> nprocs 20
|  5> end
|  6>  
|  7> %scf
|  8> MaxIter 1500
|  9> end
| 10>  
| 11> %maxcore 8000 #verificar
| 12>  
| 13> !CPCM
| 14> %cpcm smd true
| 15> SMDsolvent "ACETONITRILE"
| 16> end
| 17>  
| 18> * xyz -1 2
| 19> 6        4.790427000     -0.033865800     -0.529943200
| 20> 8        5.449345000     -1.206924000     -0.894594600
| 21> 8        4.978223000      1.323071000     -0.737377200
| 22> 6        3.506687600     -0.338741600      0.376153800
| 23> 6        2.222300000      0.400524800     -0.110681600
| 24> 6        0.900506800     -0.386389800      0.175703000
| 25> 6       -0.395261200      0.487294000      0.065549000
| 26> 6       -1.705693600     -0.364773800     -0.068373600
| 27> 6       -3.005136200      0.445344800      0.258164000
| 28> 6       -4.319880200     -0.214526000     -0.270540800
| 29> 9        3.211587400     -1.692050400      0.412735200
| 30> 9        3.741061800      0.055285800      1.689948800
| 31> 9        2.125696800      1.616867800      0.483236600
| 32> 9        2.314152400      0.589704000     -1.455769200
| 33> 9        0.794028800     -1.413561400     -0.700839000
| 34> 9        0.958350600     -0.884509000      1.435093400
| 35> 9       -0.498373400      1.260265600      1.173340200
| 36> 9       -1.641790400     -1.418189000      0.779523800
| 37> 9       -1.792381400     -0.831391600     -1.336863600
| 38> 9       -2.918792200      1.679227200     -0.295171200
| 39> 9       -3.119771000      0.573779800      1.598579800
| 40> 9       -4.383115600     -1.504377600      0.089127600
| 41> 9       -5.365669800      0.430528600      0.260394200
| 42> 9       -4.396020400     -0.128550600     -1.602941800
| 43> *
| 44> 
| 45>                          ****END OF INPUT****
================================================================================

                       *****************************
                       * Geometry Optimization Run *
                       *****************************

Geometry optimization settings:
Update method            Update   .... BFGS
Choice of coordinates    CoordSys .... (2022) Redundant Internals
Initial Hessian          InHess   .... Almloef's Model
Max. no of cycles        MaxIter  .... 72

Convergence Tolerances:
Energy Change            TolE     ....  5.0000e-06 Eh
Max. Gradient            TolMAXG  ....  3.0000e-04 Eh/bohr
RMS Gradient             TolRMSG  ....  1.0000e-04 Eh/bohr
Max. Displacement        TolMAXD  ....  4.0000e-03 bohr
RMS Displacement         TolRMSD  ....  2.0000e-03 bohr
Strict Convergence                .... False

------------------------------------------------------------------------------
                        ORCA OPTIMIZATION COORDINATE SETUP
------------------------------------------------------------------------------

The optimization will be done in redundant internal coordinates (2022)
Making redundant internal coordinates   ...  (2022 redundants) done
Evaluating the initial hessian          ...  (Almloef) done
Evaluating the coordinates              ...  done
Calculating the B-matrix                .... done
Calculating the G-matrix                .... done
Diagonalizing the G-matrix              .... done
Small eigenvalue found = 5.528e-03
Small eigenvalue found = 1.561e-02
The first mode is                       ....   38
The number of degrees of freedom        ....   66

    -----------------------------------------------------------------
                    Redundant Internal Coordinates


    -----------------------------------------------------------------
         Definition                    Initial Value    Approx d2E/dq
    -----------------------------------------------------------------
      1. B(O   1,C   0)                  1.3940         0.551454   
      2. B(O   2,C   0)                  1.3855         0.568952   
      3. B(C   3,C   0)                  1.6006         0.288221   
      4. B(C   4,C   3)                  1.5599         0.334759   
      5. B(C   5,C   4)                  1.5647         0.328824   
      6. B(C   6,C   5)                  1.5667         0.326486   
      7. B(C   7,C   6)                  1.5688         0.323927   
      8. B(C   8,C   7)                  1.5657         0.327637   
      9. B(C   9,C   8)                  1.5632         0.330714   
     10. B(F  10,C   3)                  1.3856         0.528443   
     11. B(F  11,C   3)                  1.3915         0.517117   
     12. B(F  12,C   4)                  1.3570         0.586881   
     13. B(F  13,C   4)                  1.3614         0.577499   
     14. B(F  14,C   5)                  1.3545         0.592326   
     15. B(F  15,C   5)                  1.3556         0.590092   
     16. B(F  16,C   6)                  1.3547         0.591865   
     17. B(F  17,C   7)                  1.3538         0.593973   
     18. B(F  18,C   7)                  1.3544         0.592672   
     19. B(F  19,C   8)                  1.3550         0.591238   
     20. B(F  20,C   8)                  1.3514         0.599114   
     21. B(F  21,C   9)                  1.3406         0.623533   
     22. B(F  22,C   9)                  1.3385         0.628179   
     23. B(F  23,C   9)                  1.3373         0.630929   
     24. A(O   1,C   0,O   2)          136.1318         0.413163   
     25. A(O   2,C   0,C   3)          112.3347         0.371210   
     26. A(O   1,C   0,C   3)          111.5249         0.369222   
     27. A(C   4,C   3,F  10)          107.2033         0.374492   
     28. A(C   0,C   3,C   4)          113.1687         0.341363   
     29. A(C   4,C   3,F  11)          107.4072         0.373095   
     30. A(C   0,C   3,F  10)          111.8265         0.364982   
     31. A(F  10,C   3,F  11)          106.7094         0.399684   
     32. A(C   0,C   3,F  11)          110.2099         0.363632   
     33. A(F  12,C   4,F  13)          108.2194         0.415201   
     34. A(C   3,C   4,C   5)          113.5839         0.349005   
     35. A(C   3,C   4,F  13)          108.5818         0.380286   
     36. A(C   5,C   4,F  13)          107.9208         0.379109   
     37. A(C   5,C   4,F  12)          108.0911         0.380169   
     38. A(C   3,C   4,F  12)          110.2926         0.381351   
     39. A(C   4,C   5,C   6)          113.9128         0.347536   
     40. A(F  14,C   5,F  15)          109.0206         0.417483   
     41. A(C   6,C   5,F  15)          107.7906         0.380059   
     42. A(C   4,C   5,F  15)          108.5900         0.380529   
     43. A(C   4,C   5,F  14)          109.2282         0.380779   
     44. A(C   6,C   5,F  14)          108.2026         0.380308   
     45. A(C   5,C   6,C   7)          113.2023         0.346660   
     46. A(C   7,C   6,F  16)          108.4284         0.379738   
     47. A(C   5,C   6,F  16)          108.8835         0.380256   
     48. A(C   8,C   7,F  18)          108.6915         0.380579   
     49. A(C   6,C   7,F  18)          108.6955         0.379828   
     50. A(C   8,C   7,F  17)          108.1296         0.380723   
     51. A(C   6,C   7,F  17)          109.2524         0.379972   
     52. A(C   6,C   7,C   8)          113.2298         0.346865   
     53. A(F  17,C   7,F  18)          108.7561         0.418014   
     54. A(F  19,C   8,F  20)          108.8987         0.418476   
     55. A(C   7,C   8,C   9)          114.1471         0.348078   
     56. A(C   9,C   8,F  20)          107.7127         0.381912   
     57. A(C   7,C   8,F  20)          109.0521         0.381293   
     58. A(C   9,C   8,F  19)          107.4499         0.381036   
     59. A(C   7,C   8,F  19)          109.4572         0.380419   
     60. A(F  22,C   9,F  23)          108.6464         0.426961   
     61. A(F  21,C   9,F  23)          109.0552         0.426394   
     62. A(C   8,C   9,F  23)          110.9604         0.385362   
     63. A(F  21,C   9,F  22)          108.6877         0.426061   
     64. A(C   8,C   9,F  22)          108.6349         0.385069   
     65. A(C   8,C   9,F  21)          110.7995         0.384572   
     66. D(F  10,C   3,C   0,O   2)    171.0025         0.006601   
     67. D(F  10,C   3,C   0,O   1)     -9.8890         0.006601   
     68. D(C   4,C   3,C   0,O   2)     49.8076         0.006601   
     69. D(F  11,C   3,C   0,O   1)    108.6317         0.006601   
     70. D(C   4,C   3,C   0,O   1)   -131.0839         0.006601   
     71. D(C   5,C   4,C   3,F  10)     24.8733         0.009100   
     72. D(C   5,C   4,C   3,C   0)    148.6429         0.009100   
     73. D(F  12,C   4,C   3,F  10)    146.3851         0.009100   
     74. D(F  12,C   4,C   3,C   0)    -89.8453         0.009100   
     75. D(F  12,C   4,C   3,F  11)     32.0233         0.009100   
     76. D(C   5,C   4,C   3,F  11)    -89.4885         0.009100   
     77. D(C   6,C   5,C   4,F  13)    -75.6292         0.008811   
     78. D(C   6,C   5,C   4,F  12)     41.2001         0.008811   
     79. D(F  14,C   5,C   4,C   3)    -74.9661         0.008811   
     80. D(C   6,C   5,C   4,C   3)    163.9326         0.008811   
     81. D(F  14,C   5,C   4,F  13)     45.4721         0.008811   
     82. D(F  14,C   5,C   4,F  12)    162.3014         0.008811   
     83. D(F  16,C   6,C   5,F  14)    161.9826         0.008172   
     84. D(F  16,C   6,C   5,C   4)    -76.3465         0.008172   
     85. D(C   7,C   6,C   5,F  15)    -76.4529         0.008172   
     86. D(C   7,C   6,C   5,F  14)     41.3107         0.008172   
     87. D(C   7,C   6,C   5,C   4)    162.9815         0.008172   
     88. D(F  17,C   7,C   6,F  16)    -79.1358         0.008059   
     89. D(F  17,C   7,C   6,C   5)     41.7939         0.008059   
     90. D(C   8,C   7,C   6,F  16)     41.4341         0.008059   
     91. D(F  18,C   7,C   6,C   5)    -76.7446         0.008059   
     92. D(C   8,C   7,C   6,C   5)    162.3638         0.008059   
     93. D(F  19,C   8,C   7,C   6)     41.9584         0.008755   
     94. D(C   9,C   8,C   7,F  18)     41.5227         0.008755   
     95. D(C   9,C   8,C   7,F  17)    -76.3785         0.008755   
     96. D(C   9,C   8,C   7,C   6)    162.4166         0.008755   
     97. D(F  19,C   8,C   7,F  18)    -78.9355         0.008755   
     98. D(F  19,C   8,C   7,F  17)    163.1633         0.008755   
     99. D(F  22,C   9,C   8,F  19)    -69.0724         0.008903   
    100. D(F  22,C   9,C   8,C   7)    169.3552         0.008903   
    101. D(F  21,C   9,C   8,F  20)    -71.2185         0.008903   
    102. D(F  21,C   9,C   8,F  19)    171.5999         0.008903   
    103. D(F  22,C   9,C   8,F  20)     48.1091         0.008903   
    104. D(F  21,C   9,C   8,C   7)     50.0276         0.008903   
    -----------------------------------------------------------------

Number of atoms                         .... 24
Number of degrees of freedom            .... 104


         *************************************************************
         *                GEOMETRY OPTIMIZATION CYCLE   1            *
         *************************************************************
---------------------------------
CARTESIAN COORDINATES (ANGSTROEM)
---------------------------------
  C      4.790427   -0.033866   -0.529943
  O      5.449345   -1.206924   -0.894595
  O      4.978223    1.323071   -0.737377
  C      3.506688   -0.338742    0.376154
  C      2.222300    0.400525   -0.110682
  C      0.900507   -0.386390    0.175703
  C     -0.395261    0.487294    0.065549
  C     -1.705694   -0.364774   -0.068374
  C     -3.005136    0.445345    0.258164
  C     -4.319880   -0.214526   -0.270541
  F      3.211587   -1.692050    0.412735
  F      3.741062    0.055286    1.689949
  F      2.125697    1.616868    0.483237
  F      2.314152    0.589704   -1.455769
  F      0.794029   -1.413561   -0.700839
  F      0.958351   -0.884509    1.435093
  F     -0.498373    1.260266    1.173340
  F     -1.641790   -1.418189    0.779524
  F     -1.792381   -0.831392   -1.336864
  F     -2.918792    1.679227   -0.295171
  F     -3.119771    0.573780    1.598580
  F     -4.383116   -1.504378    0.089128
  F     -5.365670    0.430529    0.260394
  F     -4.396020   -0.128551   -1.602942

----------------------------
CARTESIAN COORDINATES (A.U.)
----------------------------
  NO LB      ZA    FRAG     MASS         X           Y           Z
   0 C     6.0000    0    12.011    9.052595   -0.063997   -1.001448
   1 O     8.0000    0    15.999   10.297770   -2.280756   -1.690539
   2 O     8.0000    0    15.999    9.407478    2.500242   -1.393441
   3 C     6.0000    0    12.011    6.626679   -0.640129    0.710828
   4 C     6.0000    0    12.011    4.199538    0.756882   -0.209158
   5 C     6.0000    0    12.011    1.701711   -0.730171    0.332031
   6 C     6.0000    0    12.011   -0.746935    0.920852    0.123870
   7 C     6.0000    0    12.011   -3.223294   -0.689323   -0.129207
   8 C     6.0000    0    12.011   -5.678884    0.841580    0.487859
   9 C     6.0000    0    12.011   -8.163391   -0.405395   -0.511248
  10 F     9.0000    0    18.998    6.069021   -3.197512    0.779956
  11 F     9.0000    0    18.998    7.069582    0.104475    3.193540
  12 F     9.0000    0    18.998    4.016985    3.055437    0.913185
  13 F     9.0000    0    18.998    4.373114    1.114379   -2.751005
  14 F     9.0000    0    18.998    1.500497   -2.671244   -1.324394
  15 F     9.0000    0    18.998    1.811020   -1.671480    2.711934
  16 F     9.0000    0    18.998   -0.941789    2.381557    2.217292
  17 F     9.0000    0    18.998   -3.102534   -2.679989    1.473086
  18 F     9.0000    0    18.998   -3.387110   -1.571102   -2.526306
  19 F     9.0000    0    18.998   -5.515718    3.173280   -0.557793
  20 F     9.0000    0    18.998   -5.895513    1.084287    3.020878
  21 F     9.0000    0    18.998   -8.282888   -2.842862    0.168427
  22 F     9.0000    0    18.998  -10.139646    0.813581    0.492074
  23 F     9.0000    0    18.998   -8.307275   -0.242925   -3.029121

--------------------------------
INTERNAL COORDINATES (ANGSTROEM)
--------------------------------
 C      0   0   0     0.000000000000     0.00000000     0.00000000
 O      1   0   0     1.393990356793     0.00000000     0.00000000
 O      1   2   0     1.385486802956   136.13177198     0.00000000
 C      1   2   3     1.600608594862   111.52489317   181.18992567
 C      4   1   2     1.559863783763   113.16872737   228.91614990
 C      5   4   1     1.564732561934   113.58394786   148.64287440
 C      6   5   4     1.566675459667   113.91280616   163.93256239
 C      7   6   5     1.568817348692   113.20226571   162.98152714
 C      8   7   6     1.565717094808   113.22984595   162.36375422
 C      9   8   7     1.563173062643   114.14707705   162.41661495
 F      4   1   2     1.385592665621   111.82651119   350.11101305
 F      4   1   2     1.391490625050   110.20991618   108.63170802
 F      5   4   1     1.357041377479   110.29260564   270.15468021
 F      5   4   1     1.361428031433   108.58179722    28.57841973
 F      6   5   4     1.354527570075   109.22822656   285.03385927
 F      6   5   4     1.355556277776   108.59004089    43.81583148
 F      7   6   5     1.354739297058   108.88346185   283.65347401
 F      8   7   6     1.353771473879   109.25240264    41.79387651
 F      8   7   6     1.354368423305   108.69554158   283.25540020
 F      9   8   7     1.355028009646   109.45719767    41.95842364
 F      9   8   7     1.351425618925   109.05210362   282.91820052
 F     10   9   8     1.340551089588   110.79953142    50.02756898
 F     10   9   8     1.338530275591   108.63493714   169.35523750
 F     10   9   8     1.337341214598   110.96044107   288.72891896

---------------------------
INTERNAL COORDINATES (A.U.)
---------------------------
 C      0   0   0     0.000000000000     0.00000000     0.00000000
 O      1   0   0     2.634260007667     0.00000000     0.00000000
 O      1   2   0     2.618190619750   136.13177198     0.00000000
 C      1   2   3     3.024711891890   111.52489317   181.18992567
 C      4   1   2     2.947715357535   113.16872737   228.91614990
 C      5   4   1     2.956916014884   113.58394786   148.64287440
 C      6   5   4     2.960587559506   113.91280616   163.93256239
 C      7   6   5     2.964635143173   113.20226571   162.98152714
 C      8   7   6     2.958776512386   113.22984595   162.36375422
 C      9   8   7     2.953968988318   114.14707705   162.41661495
 F      4   1   2     2.618390671194   111.82651119   350.11101305
 F      4   1   2     2.629536199263   110.20991618   108.63170802
 F      5   4   1     2.564436555835   110.29260564   270.15468021
 F      5   4   1     2.572726130452   108.58179722    28.57841973
 F      6   5   4     2.559686148288   109.22822656   285.03385927
 F      6   5   4     2.561630124115   108.59004089    43.81583148
 F      7   6   5     2.560086254300   108.88346185   283.65347401
 F      8   7   6     2.558257333546   109.25240264    41.79387651
 F      8   7   6     2.559385404477   108.69554158   283.25540020
 F      9   8   7     2.560631842023   109.45719767    41.95842364
 F      9   8   7     2.553824310132   109.05210362   282.91820052
 F     10   9   8     2.533274427850   110.79953142    50.02756898
 F     10   9   8     2.529455642830   108.63493714   169.35523750
 F     10   9   8     2.527208643196   110.96044107   288.72891896

---------------------
BASIS SET INFORMATION
---------------------
There are 3 groups of distinct atoms

 Group   1 Type C   : 11s6p2d1f contracted to 5s3p2d1f pattern {62111/411/11/1}
 Group   2 Type O   : 11s6p2d1f contracted to 5s3p2d1f pattern {62111/411/11/1}
 Group   3 Type F   : 11s6p2d1f contracted to 5s3p2d1f pattern {62111/411/11/1}

Atom   0C    basis set group =>   1
Atom   1O    basis set group =>   2
Atom   2O    basis set group =>   2
Atom   3C    basis set group =>   1
Atom   4C    basis set group =>   1
Atom   5C    basis set group =>   1
Atom   6C    basis set group =>   1
Atom   7C    basis set group =>   1
Atom   8C    basis set group =>   1
Atom   9C    basis set group =>   1
Atom  10F    basis set group =>   3
Atom  11F    basis set group =>   3
Atom  12F    basis set group =>   3
Atom  13F    basis set group =>   3
Atom  14F    basis set group =>   3
Atom  15F    basis set group =>   3
Atom  16F    basis set group =>   3
Atom  17F    basis set group =>   3
Atom  18F    basis set group =>   3
Atom  19F    basis set group =>   3
Atom  20F    basis set group =>   3
Atom  21F    basis set group =>   3
Atom  22F    basis set group =>   3
Atom  23F    basis set group =>   3
---------------------------------
AUXILIARY/J BASIS SET INFORMATION
---------------------------------
There are 3 groups of distinct atoms

 Group   1 Type C   : 12s5p4d2f1g contracted to 6s4p3d1f1g pattern {711111/2111/211/2/1}
 Group   2 Type O   : 12s5p4d2f1g contracted to 6s4p3d1f1g pattern {711111/2111/211/2/1}
 Group   3 Type F   : 12s5p4d2f1g contracted to 6s4p3d1f1g pattern {711111/2111/211/2/1}

Atom   0C    basis set group =>   1
Atom   1O    basis set group =>   2
Atom   2O    basis set group =>   2
Atom   3C    basis set group =>   1
Atom   4C    basis set group =>   1
Atom   5C    basis set group =>   1
Atom   6C    basis set group =>   1
Atom   7C    basis set group =>   1
Atom   8C    basis set group =>   1
Atom   9C    basis set group =>   1
Atom  10F    basis set group =>   3
Atom  11F    basis set group =>   3
Atom  12F    basis set group =>   3
Atom  13F    basis set group =>   3
Atom  14F    basis set group =>   3
Atom  15F    basis set group =>   3
Atom  16F    basis set group =>   3
Atom  17F    basis set group =>   3
Atom  18F    basis set group =>   3
Atom  19F    basis set group =>   3
Atom  20F    basis set group =>   3
Atom  21F    basis set group =>   3
Atom  22F    basis set group =>   3
Atom  23F    basis set group =>   3


           ************************************************************
           *        Program running with 20 parallel MPI-processes    *
           *              working on a common directory               *
           ************************************************************
------------------------------------------------------------------------------
                             ORCA STARTUP CALCULATIONS
                           -- RI-GTO INTEGRALS CHOSEN --
------------------------------------------------------------------------------
------------------------------------------------------------------------------
                   ___                                                        
                  /   \      - P O W E R E D   B Y -                         
                 /     \                                                     
                 |  |  |   _    _      __       _____    __    __             
                 |  |  |  | |  | |    /  \     |  _  \  |  |  /  |          
                  \  \/   | |  | |   /    \    | | | |  |  | /  /          
                 / \  \   | |__| |  /  /\  \   | |_| |  |  |/  /          
                |  |  |   |  __  | /  /__\  \  |    /   |      \           
                |  |  |   | |  | | |   __   |  |    \   |  |\   \          
                \     /   | |  | | |  |  |  |  | |\  \  |  | \   \       
                 \___/    |_|  |_| |__|  |__|  |_| \__\ |__|  \__/        
                                                                              
                      - O R C A' S   B I G   F R I E N D -                    
                                      &                                       
                       - I N T E G R A L  F E E D E R -                       
                                                                              
 v1 FN, 2020, v2 2021, v3 2022-2024                                           
------------------------------------------------------------------------------


----------------------
SHARK INTEGRAL PACKAGE
----------------------

Number of atoms                             ...     24
Number of basis functions                   ...    744
Number of shells                            ...    264
Maximum angular momentum                    ...      3
Integral batch strategy                     ... SHARK/LIBINT Hybrid
RI-J (if used) integral strategy            ... SPLIT-RIJ (Revised 2003 algorithm where possible)
Printlevel                                  ...      1
Contraction scheme used                     ... SEGMENTED contraction
Prescreening option                         ... SCHWARTZ
   Thresh                                   ... 2.500e-11
   Tcut                                     ... 2.500e-12
   Tpresel                                  ... 2.500e-12 
Coulomb Range Separation                    ... NOT USED
Exchange Range Separation                   ... NOT USED
Multipole approximations                    ... NOT USED
Finite Nucleus Model                        ... NOT USED
CABS basis                                  ... NOT available
Auxiliary Coulomb fitting basis             ... AVAILABLE
   # of basis functions in Aux-J            ...   1176
   # of shells in Aux-J                     ...    360
   Maximum angular momentum in Aux-J        ...      4
Auxiliary J/K fitting basis                 ... NOT available
Auxiliary Correlation fitting basis         ... NOT available
Auxiliary 'external' fitting basis          ... NOT available

Checking pre-screening integrals            ... done (  0.0 sec) Dimension = 264
Check shell pair data                       ... done (  0.0 sec)
Shell pair information
Shell pair cut-off parameter TPreSel        ...   2.5e-12
Total number of shell pairs                 ...     34980
Shell pairs after pre-screening             ...     21367
Total number of primitive shell pairs       ...    115968
Primitive shell pairs kept                  ...     45490
          la=0 lb=0:   3987 shell pairs
          la=1 lb=0:   5806 shell pairs
          la=1 lb=1:   2036 shell pairs
          la=2 lb=0:   3175 shell pairs
          la=2 lb=1:   2358 shell pairs
          la=2 lb=2:    669 shell pairs
          la=3 lb=0:   1443 shell pairs
          la=3 lb=1:   1134 shell pairs
          la=3 lb=2:    611 shell pairs
          la=3 lb=3:    148 shell pairs

Calculating one electron integrals          ... done (  0.2 sec)
Calculating RI/J V-Matrix + Cholesky decomp.... done (  0.2 sec)
Calculating Nuclear repulsion               ... done (  0.0 sec) ENN=   2588.978657418115 Eh

Diagonalization of the overlap matrix:
Smallest eigenvalue                        ... 6.774e-05
Time for diagonalization                   ...    0.147 sec
Threshold for overlap eigenvalues          ... 1.000e-07
Number of eigenvalues below threshold      ... 0
Time for construction of square roots      ...    0.040 sec
Total time needed                          ...    0.194 sec

-------------------
DFT GRID GENERATION
-------------------

General Integration Accuracy     IntAcc      ... 4.388
Radial Grid Type                 RadialGrid  ... OptM3 with GC (2021)
Angular Grid (max. ang.)         AngularGrid ... 4 (Lebedev-302)
Angular grid pruning method      GridPruning ... 4 (adaptive)
Weight generation scheme         WeightScheme... mBecke (2022)
Basis function cutoff            BFCut       ... 1.0000e-11
Integration weight cutoff        WCut        ... 1.0000e-14
Partially contracted basis set               ... off
Rotationally invariant grid construction     ... off
Angular grids for H and He will be reduced by one unit

Total number of grid points                  ...   145512
Total number of batches                      ...     2284
Average number of points per batch           ...       63
Average number of grid points per atom       ...     6063

--------------------
COSX GRID GENERATION
--------------------

GRIDX 1
-------
General Integration Accuracy     IntAcc      ... 3.816
Radial Grid Type                 RadialGrid  ... OptM3 with GC (2021)
Angular Grid (max. ang.)         AngularGrid ... 1 (Lebedev-50)
Angular grid pruning method      GridPruning ... 4 (adaptive)
Weight generation scheme         WeightScheme... mBecke (2022)
Basis function cutoff            BFCut       ... 1.0000e-11
Integration weight cutoff        WCut        ... 1.0000e-14
Partially contracted basis set               ... on
Rotationally invariant grid construction     ... off
Angular grids for H and He will be reduced by one unit

Total number of grid points                  ...    18282
Total number of batches                      ...      153
Average number of points per batch           ...      119
Average number of grid points per atom       ...      762
UseSFitting                                  ... on

GRIDX 2
-------
General Integration Accuracy     IntAcc      ... 4.020
Radial Grid Type                 RadialGrid  ... OptM3 with GC (2021)
Angular Grid (max. ang.)         AngularGrid ... 2 (Lebedev-110)
Angular grid pruning method      GridPruning ... 4 (adaptive)
Weight generation scheme         WeightScheme... mBecke (2022)
Basis function cutoff            BFCut       ... 1.0000e-11
Integration weight cutoff        WCut        ... 1.0000e-14
Partially contracted basis set               ... on
Rotationally invariant grid construction     ... off
Angular grids for H and He will be reduced by one unit

Total number of grid points                  ...    43385
Total number of batches                      ...      353
Average number of points per batch           ...      122
Average number of grid points per atom       ...     1808
UseSFitting                                  ... on

GRIDX 3
-------
General Integration Accuracy     IntAcc      ... 4.338
Radial Grid Type                 RadialGrid  ... OptM3 with GC (2021)
Angular Grid (max. ang.)         AngularGrid ... 3 (Lebedev-194)
Angular grid pruning method      GridPruning ... 4 (adaptive)
Weight generation scheme         WeightScheme... mBecke (2022)
Basis function cutoff            BFCut       ... 1.0000e-11
Integration weight cutoff        WCut        ... 1.0000e-14
Partially contracted basis set               ... on
Rotationally invariant grid construction     ... off
Angular grids for H and He will be reduced by one unit

Total number of grid points                  ...    96130
Total number of batches                      ...      759
Average number of points per batch           ...      126
Average number of grid points per atom       ...     4005
UseSFitting                                  ... on
Initializing property integral containers    ... done (  0.0 sec)

SHARK setup successfully completed in   3.8 seconds

Maximum memory used throughout the entire STARTUP-calculation: 56.3 MB


           ************************************************************
           *        Program running with 20 parallel MPI-processes    *
           *              working on a common directory               *
           ************************************************************
-------------------------------------------------------------------------------
                                 ORCA GUESS
                   Start orbitals & Density for SCF / CASSCF
-------------------------------------------------------------------------------

------------
SCF SETTINGS
------------
Hamiltonian:
 Density Functional     Method          .... DFT(GTOs)
  Functional kind                       .... Exchange
  Functional name                       .... Re-regularized SCAN exchange by Furness et al
  Functional family                     .... MGGA
  Functional refs                              
    [ 0] J. W. Furness, A. D. Kaplan, J. Ning, J. P. Perdew, and J. Sun.,  J. Phys. Chem. Lett. 11, 8208-8215 (2020), doi: 10.1021/acs.jpclett.0c02405
    [ 1] J. W. Furness, A. D. Kaplan, J. Ning, J. P. Perdew, and J. Sun.,  J. Phys. Chem. Lett. 11, 9248-9248 (2020), doi: 10.1021/acs.jpclett.0c03077
  Functional external parameters        .... 6
    Parameter  0 _c1        =  6.670000e-01 : c1 parameter        
    Parameter  1 _c2        =  8.000000e-01 : c2 parameter        
    Parameter  2 _d         =  1.240000e+00 : d parameter         
    Parameter  3 _k1        =  6.500000e-02 : k1 parameter        
    Parameter  4 _eta       =  1.000000e-03 : eta parameter       
    Parameter  5 _dp2       =  3.610000e-01 : dp2 parameter       
  Functional kind                       .... Correlation
  Functional name                       .... Re-regularized SCAN correlation by Furness et al
  Functional family                     .... MGGA
  Functional refs                              
    [ 0] J. W. Furness, A. D. Kaplan, J. Ning, J. P. Perdew, and J. Sun.,  J. Phys. Chem. Lett. 11, 8208-8215 (2020), doi: 10.1021/acs.jpclett.0c02405
    [ 1] J. W. Furness, A. D. Kaplan, J. Ning, J. P. Perdew, and J. Sun.,  J. Phys. Chem. Lett. 11, 9248-9248 (2020), doi: 10.1021/acs.jpclett.0c03077
  Functional external parameters        .... 1
    Parameter  0 _eta       =  1.000000e-03 : Regularization parameter
 Gradients option       PostSCFGGA      .... off
 Hybrid DFT is turned on
   Fraction HF Exchange ScalHFX         ....  0.100000
   Scaling of DF-GGA-X  ScalDFX         ....  0.900000
   Scaling of DF-GGA-C  ScalDFC         ....  1.000000
   Scaling of DF-LDA-C  ScalLDAC        ....  1.000000
   Perturbative correction              ....  0.000000
   NL short-range parameter             .... 11.900000
 RI-approximation to the Coulomb term is turned on
   Number of AuxJ basis functions       .... 1176
   RIJ-COSX (HFX calculated with COS-X)).... on


General Settings:
 Integral files         IntName         .... rf_mecn_opt_r2s_C5_D_B
 Hartree-Fock type      HFTyp           .... UHF
 Total Charge           Charge          ....   -1
 Multiplicity           Mult            ....    2
 Number of Electrons    NEL             ....  191
 Basis Dimension        Dim             ....  744
 Nuclear Repulsion      ENuc            ....   2588.9786574181 Eh

Convergence Acceleration:
 AO-DIIS                CNVDIIS         .... on
   Start iteration      DIISMaxIt       ....     0
   Startup error        DIISStart       ....  0.200000
   # of expansion vecs  DIISMaxEq       ....     5
   Bias factor          DIISBfac        ....   1.050
   Max. coefficient     DIISMaxC        ....  10.000
 MO-DIIS                CNVKDIIS        .... off
 Trust-Rad. Augm. Hess. CNVTRAH         .... auto
   Auto Start mean grad. ratio tolernc. ....  1.125000
   Auto Start start iteration           ....    50
   Auto Start num. interpolation iter.  ....    10
   Max. Number of Micro iterations      ....    24
   Max. Number of Macro iterations      .... Maxiter - #DIIS iter
   Number of Davidson start vectors     ....     2
   Converg. threshold    (grad. norm)   ....   1.000e-05
   Grad. Scal. Fac. for Micro threshold ....   0.100
   Minimum threshold for Micro iter.    ....   1.000e-02
   NR start threshold (gradient norm)   ....   1.000e-04
   Initial trust radius                 ....   0.400
   Minimum AH scaling param. (alpha)    ....   1.000
   Maximum AH scaling param. (alpha)    .... 1000.000
   Quad. conv. algorithm                .... NR
   White noise on init. David. guess    .... on
   Maximum white noise                  ....   0.010
   Pseudo random numbers                .... off
   Inactive MOs                         .... canonical
   Orbital update algorithm             .... Taylor
   Preconditioner                       .... Diag
   Full preconditioner red. dimension   ....   250
 SOSCF                  CNVSOSCF        .... on
   Start iteration      SOSCFMaxIt      ....   150
   Startup grad/error   SOSCFStart      ....  0.001000
   Hessian update       SOSCFHessUp     .... L-BFGS
 Level Shifting         CNVShift        .... on
   Level shift para.    LevelShift      ....    0.2500
   Turn off err/grad.   ShiftErr        ....    0.0000
 Zerner damping         CNVZerner       .... off
 Static damping         CNVDamp         .... on
   Fraction old density DampFac         ....    0.8500
   Max. Damping (<1)    DampMax         ....    0.9800
   Min. Damping (>=0)   DampMin         ....    0.0000
   Turn off err/grad.   DampErr         ....    0.0300

SCF Procedure:
 Maximum # iterations   MaxIter         ....  1500
 SCF integral mode      SCFMode         .... Direct
   Integral package                     .... SHARK and LIBINT hybrid scheme
 Reset frequency        DirectResetFreq ....    20
 Integral Threshold     Thresh          ....  2.500e-11 Eh
 Primitive CutOff       TCut            ....  2.500e-12 Eh

Convergence Tolerance:
 Convergence Check Mode ConvCheckMode   .... Total+1el-Energy
 Convergence forced     ConvForced      .... 0
 Energy Change          TolE            ....  1.000e-08 Eh
 1-El. energy change                    ....  1.000e-05 Eh
 Orbital Gradient       TolG            ....  1.000e-05
 Orbital Rotation angle TolX            ....  1.000e-05
 DIIS Error             TolErr          ....  5.000e-07

------------------------------
INITIAL GUESS: MODEL POTENTIAL
------------------------------
Loading Hartree-Fock densities                     ... done
Calculating cut-offs                               ... done
Initializing the effective Hamiltonian             ... done
Setting up the integral package (SHARK)            ... done
Starting the Coulomb interaction                   ... done (   0.3 sec)
Making the grid                                    ... done (   0.5 sec)
Mapping shells                                     ... done
Starting the XC term evaluation                    ... done (   0.1 sec)
  promolecular density results
     # of electrons  =    189.999877799
     EX              =   -197.018043732
     EC              =     -6.647769626
     EX+EC           =   -203.665813358
Transforming the Hamiltonian                       ... done (   0.0 sec)
Diagonalizing the Hamiltonian                      ... done (   0.1 sec)
Back transforming the eigenvectors                 ... done (   0.0 sec)
Now organizing SCF variables                       ... done
                      ------------------
                      INITIAL GUESS DONE (   1.3 sec)
                      ------------------
             **** ENERGY FILE WAS UPDATED (rf_mecn_opt_r2s_C5_D_B.en.tmp) ****
Finished Guess after   2.0 sec
Maximum memory used throughout the entire GUESS-calculation: 44.8 MB


           ************************************************************
           *        Program running with 20 parallel MPI-processes    *
           *              working on a common directory               *
           ************************************************************

-------------------------------------------------------------------------------------------
                                      ORCA LEAN-SCF
                              memory conserving SCF solver
-------------------------------------------------------------------------------------------

--------------------
CPCM SOLVATION MODEL
--------------------
CPCM parameters:
  Epsilon                                         ...      35.6880
  Refrac                                          ...       1.3442
  Rsolv                                           ...       1.3000
  Surface type                                    ... GAUSSIAN VDW
  Discretization scheme                           ... Constant charge density
    Threshold for H atoms                         ...       5.0000 (charges/Ang^2)
    Threshold for non-H atoms                     ...       5.0000 (charges/Ang^2)
  Epsilon function type                           ...         CPCM
Solvent:                                          ... ACETONITRILE
SMD-CDS solvent descriptors:
  Soln                                            ...       1.3442
  Soln25                                          ...       1.3416
  Sola                                            ...       0.0700
  Solb                                            ...       0.3200
  Solg                                            ...      41.2500
  Solc                                            ...       0.0000
  Solh                                            ...       0.0000
Radii:
  Scheme                                          ... Element-dependent radii
  Radius for C  used is    3.4960 Bohr (=   1.8500 Ang.)
  Radius for O  used is    4.0969 Bohr (=   2.1680 Ang.)
  Radius for F  used is    3.2692 Bohr (=   1.7300 Ang.)
Calculating surface                               ...        done! (  0.0s)
Cavity surface points                             ...         2142
Cavity Volume                                     ...    2134.6880
Cavity Surface-area                               ...    1120.1316
Calculating surface distance matrix               ...        done! (  0.0s)
Performing Cholesky decomposition & store         ...        done! (  0.1s)
Overall time for CPCM initialization              ...                 0.1s

----------------------------------------D-I-I-S--------------------------------------------
Iteration    Energy (Eh)           Delta-E    RMSDP     MaxDP     DIISErr   Damp  Time(sec)
-------------------------------------------------------------------------------------------
               ***  Starting incremental Fock matrix formation  ***
    1    -1852.5852827857929697     0.00e+00  2.63e-04  3.36e-02  1.57e-01  0.850   6.7
Warning: op=0 Small HOMO/LUMO gap (   0.059) - skipping pre-diagonalization
         Will do a full diagonalization
    2    -1852.7321426464491196    -1.47e-01  3.26e-04  6.39e-02  1.05e-01  0.850   4.4
                               ***Turning on AO-DIIS***
    3    -1852.8081832378870786    -7.60e-02  1.54e-04  2.73e-02  6.07e-02  0.850   4.6
    4    -1852.8532952405953438    -4.51e-02  8.20e-05  9.05e-03  4.45e-02  0.850   4.5
    5    -1852.8853280236785395    -3.20e-02  5.57e-05  3.64e-03  3.70e-02  0.850   4.2
    6    -1852.9107552385271447    -2.54e-02  4.58e-05  3.89e-03  3.23e-02  0.850   4.4
    7    -1852.9320324672048628    -2.13e-02  4.10e-05  3.91e-03  2.78e-02  0.850   4.0
    8    -1852.9501919079925756    -1.82e-02  2.43e-04  2.44e-02  2.32e-02  0.000   4.3
    9    -1853.0460632574245210    -9.59e-02  2.69e-05  2.27e-03  4.71e-03  0.000   4.6
   10    -1853.0462983027032351    -2.35e-04  1.11e-05  1.25e-03  3.10e-03  0.000   4.1
                              *** Initializing SOSCF ***
---------------------------------------S-O-S-C-F--------------------------------------
Iteration    Energy (Eh)           Delta-E    RMSDP     MaxDP     MaxGrad    Time(sec)
--------------------------------------------------------------------------------------
   11    -1853.0463954748952347    -9.72e-05  6.46e-06  9.06e-04  4.77e-04     4.3
               *** Restarting incremental Fock matrix formation ***
   12    -1853.0464146913068362    -1.92e-05  6.97e-06  8.18e-04  4.29e-04     7.4
   13    -1853.0464178678053031    -3.18e-06  5.03e-06  6.73e-04  6.03e-04     5.1
   14    -1853.0464204705817792    -2.60e-06  2.58e-06  2.33e-04  2.42e-04     4.8
   15    -1853.0464213696527622    -8.99e-07  1.19e-06  1.95e-04  3.40e-05     4.5
   16    -1853.0464214726466707    -1.03e-07  5.60e-07  3.73e-05  5.23e-05     4.1
   17    -1853.0464215086417425    -3.60e-08  7.54e-07  1.34e-04  5.63e-05     4.0
   18    -1853.0464214912985881     1.73e-08  3.84e-07  4.55e-05  5.62e-05     3.8
   19    -1853.0464215590914137    -6.78e-08  3.17e-07  6.16e-05  6.66e-06     3.7
   20    -1853.0464215246261119     3.45e-08  1.75e-07  3.39e-05  6.37e-06     3.5
   21    -1853.0464215439756117    -1.93e-08  7.59e-08  6.89e-06  5.14e-07     3.3
                  *** Gradient check signals convergence ***

               *****************************************************
               *                     SUCCESS                       *
               *           SCF CONVERGED AFTER  21 CYCLES          *
               *****************************************************

Recomputing exchange energy using gridx3       ... done (    8.294 sec)
Old exchange energy                            :    -19.873610595 Eh
New exchange energy                            :    -19.873617441 Eh
Exchange energy change after final integration :     -0.000006846 Eh
Total energy after final integration           :  -1853.046428390 Eh

SMD CDS free energy correction energy :                 3.61095     Kcal/mol
Total Energy after SMD CDS correction =             -1853.040673968 Eh
             **** ENERGY FILE WAS UPDATED (rf_mecn_opt_r2s_C5_D_B.en.tmp) ****

----------------
TOTAL SCF ENERGY
----------------

Total Energy       :      -1853.04067396772484 Eh          -50423.80024 eV

Components:
Nuclear Repulsion  :       2588.97865741811484 Eh           70449.69086 eV
Electronic Energy  :      -4441.94123854929421 Eh         -120871.36608 eV
One Electron Energy:      -7752.35273673883239 Eh         -210952.24257 eV
Two Electron Energy:       3310.41149818953818 Eh           90080.87649 eV
CPCM Dielectric    :         -0.08384041279593 Eh              -2.28141 eV
SMD CDS (Gcds)     :          0.00575442212801 Eh               0.15659 eV

Virial components:
Potential Energy   :      -3698.51497733976976 Eh         -100641.70906 eV
Kinetic Energy     :       1845.47430337204469 Eh           50217.90882 eV
Virial Ratio       :          2.00409995987582

DFT components:
N(Alpha)           :       95.999991777050 electrons
N(Beta)            :       94.999978649249 electrons
N(Total)           :      190.999970426299 electrons
E(X)               :     -179.874842073041 Eh       
E(C)               :       -6.627382930924 Eh       
E(XC)              :     -186.502225003965 Eh       

CPCM Solvation Model Properties:
Surface-charge          :          0.99028927160942
Corrected charge        :          1.00000000000000
Outlying charge corr.   :          0.00000512446902 Eh               0.00014 eV
Free-energy (cav+disp)  :          0.00575442212801 Eh               0.15659 eV

---------------
SCF CONVERGENCE
---------------

  Last Energy change         ...    1.9349e-08  Tolerance :   1.0000e-08
  Last MAX-Density change    ...    6.8910e-06  Tolerance :   1.0000e-07
  Last RMS-Density change    ...    7.5854e-08  Tolerance :   5.0000e-09
  Last DIIS Error            ...    4.7735e-04  Tolerance :   5.0000e-07
  Last Orbital Gradient      ...    5.1390e-07  Tolerance :   1.0000e-05
  Last Orbital Rotation      ...    1.2524e-06  Tolerance :   1.0000e-05


----------------------
UHF SPIN CONTAMINATION
----------------------

Warning: in a DFT calculation there is little theoretical justification to 
         calculate <S**2> as in Hartree-Fock theory. We will do it anyways
         but you should keep in mind that the values have only limited relevance

Expectation value of <S**2>     :     0.755198
Ideal value S*(S+1) for S=0.5   :     0.750000
Deviation                       :     0.005198

----------------
ORBITAL ENERGIES
----------------
                 SPIN UP ORBITALS
  NO   OCC          E(Eh)            E(eV) 
   0   1.0000     -24.732286      -672.9997 
   1   1.0000     -24.732025      -672.9926 
   2   1.0000     -24.730945      -672.9632 
   3   1.0000     -24.730307      -672.9459 
   4   1.0000     -24.729910      -672.9351 
   5   1.0000     -24.728503      -672.8968 
   6   1.0000     -24.728449      -672.8953 
   7   1.0000     -24.724636      -672.7916 
   8   1.0000     -24.719684      -672.6568 
   9   1.0000     -24.719283      -672.6459 
  10   1.0000     -24.711649      -672.4382 
  11   1.0000     -24.708712      -672.3582 
  12   1.0000     -24.691748      -671.8966 
  13   1.0000     -24.688977      -671.8212 
  14   1.0000     -19.075526      -519.0714 
  15   1.0000     -19.073771      -519.0237 
  16   1.0000     -10.443127      -284.1719 
  17   1.0000     -10.388428      -282.6835 
  18   1.0000     -10.387087      -282.6470 
  19   1.0000     -10.379092      -282.4294 
  20   1.0000     -10.364793      -282.0404 
  21   1.0000     -10.343447      -281.4595 
  22   1.0000     -10.323623      -280.9201 
  23   1.0000     -10.277788      -279.6728 
  24   1.0000      -1.353556       -36.8321 
  25   1.0000      -1.321685       -35.9649 
  26   1.0000      -1.311650       -35.6918 
  27   1.0000      -1.304995       -35.5107 
  28   1.0000      -1.290766       -35.1235 
  29   1.0000      -1.280755       -34.8511 
  30   1.0000      -1.267093       -34.4794 
  31   1.0000      -1.262546       -34.3556 
  32   1.0000      -1.260875       -34.3101 
  33   1.0000      -1.256750       -34.1979 
  34   1.0000      -1.250680       -34.0327 
  35   1.0000      -1.248135       -33.9635 
  36   1.0000      -1.234814       -33.6010 
  37   1.0000      -1.208260       -32.8784 
  38   1.0000      -0.963346       -26.2140 
  39   1.0000      -0.903661       -24.5899 
  40   1.0000      -0.841374       -22.8949 
  41   1.0000      -0.817905       -22.2563 
  42   1.0000      -0.789016       -21.4702 
  43   1.0000      -0.745634       -20.2897 
  44   1.0000      -0.704674       -19.1752 
  45   1.0000      -0.675359       -18.3774 
  46   1.0000      -0.654103       -17.7991 
  47   1.0000      -0.632634       -17.2148 
  48   1.0000      -0.625750       -17.0275 
  49   1.0000      -0.623253       -16.9596 
  50   1.0000      -0.605845       -16.4859 
  51   1.0000      -0.603481       -16.4216 
  52   1.0000      -0.599143       -16.3035 
  53   1.0000      -0.595744       -16.2110 
  54   1.0000      -0.590481       -16.0678 
  55   1.0000      -0.577560       -15.7162 
  56   1.0000      -0.574441       -15.6313 
  57   1.0000      -0.563608       -15.3365 
  58   1.0000      -0.556966       -15.1558 
  59   1.0000      -0.553960       -15.0740 
  60   1.0000      -0.537862       -14.6360 
  61   1.0000      -0.510269       -13.8851 
  62   1.0000      -0.498587       -13.5673 
  63   1.0000      -0.491625       -13.3778 
  64   1.0000      -0.486546       -13.2396 
  65   1.0000      -0.481213       -13.0945 
  66   1.0000      -0.479940       -13.0598 
  67   1.0000      -0.471074       -12.8186 
  68   1.0000      -0.466663       -12.6986 
  69   1.0000      -0.464394       -12.6368 
  70   1.0000      -0.461700       -12.5635 
  71   1.0000      -0.460670       -12.5355 
  72   1.0000      -0.450395       -12.2559 
  73   1.0000      -0.448720       -12.2103 
  74   1.0000      -0.446199       -12.1417 
  75   1.0000      -0.445448       -12.1213 
  76   1.0000      -0.440078       -11.9751 
  77   1.0000      -0.436182       -11.8691 
  78   1.0000      -0.433703       -11.8017 
  79   1.0000      -0.431240       -11.7346 
  80   1.0000      -0.425793       -11.5864 
  81   1.0000      -0.423307       -11.5188 
  82   1.0000      -0.421229       -11.4622 
  83   1.0000      -0.416382       -11.3303 
  84   1.0000      -0.412203       -11.2166 
  85   1.0000      -0.400002       -10.8846 
  86   1.0000      -0.399101       -10.8601 
  87   1.0000      -0.383546       -10.4368 
  88   1.0000      -0.377102       -10.2615 
  89   1.0000      -0.357840        -9.7373 
  90   1.0000      -0.338373        -9.2076 
  91   1.0000      -0.328019        -8.9259 
  92   1.0000      -0.296271        -8.0619 
  93   1.0000      -0.240682        -6.5493 
  94   1.0000      -0.232791        -6.3346 
  95   1.0000      -0.229397        -6.2422 
  96   0.0000      -0.030555        -0.8314 
  97   0.0000      -0.016119        -0.4386 
  98   0.0000       0.017626         0.4796 
  99   0.0000       0.035759         0.9730 
 100   0.0000       0.044140         1.2011 
 101   0.0000       0.080168         2.1815 
 102   0.0000       0.100503         2.7348 
 103   0.0000       0.107447         2.9238 
 104   0.0000       0.112172         3.0523 
 105   0.0000       0.118667         3.2291 
 106   0.0000       0.127108         3.4588 

                 SPIN DOWN ORBITALS
  NO   OCC          E(Eh)            E(eV) 
   0   1.0000     -24.732020      -672.9925 
   1   1.0000     -24.730946      -672.9633 
   2   1.0000     -24.730319      -672.9462 
   3   1.0000     -24.729808      -672.9323 
   4   1.0000     -24.728498      -672.8966 
   5   1.0000     -24.727583      -672.8717 
   6   1.0000     -24.726834      -672.8514 
   7   1.0000     -24.724618      -672.7911 
   8   1.0000     -24.719276      -672.6457 
   9   1.0000     -24.718369      -672.6210 
  10   1.0000     -24.711618      -672.4373 
  11   1.0000     -24.708684      -672.3575 
  12   1.0000     -24.691748      -671.8966 
  13   1.0000     -24.688975      -671.8212 
  14   1.0000     -19.075521      -519.0713 
  15   1.0000     -19.073752      -519.0232 
  16   1.0000     -10.443141      -284.1723 
  17   1.0000     -10.388378      -282.6821 
  18   1.0000     -10.387141      -282.6485 
  19   1.0000     -10.379075      -282.4290 
  20   1.0000     -10.364748      -282.0391 
  21   1.0000     -10.343460      -281.4599 
  22   1.0000     -10.305909      -280.4381 
  23   1.0000     -10.277790      -279.6729 
  24   1.0000      -1.353536       -36.8316 
  25   1.0000      -1.320298       -35.9271 
  26   1.0000      -1.310756       -35.6675 
  27   1.0000      -1.304163       -35.4881 
  28   1.0000      -1.290284       -35.1104 
  29   1.0000      -1.272912       -34.6377 
  30   1.0000      -1.266949       -34.4754 
  31   1.0000      -1.262538       -34.3554 
  32   1.0000      -1.260860       -34.3097 
  33   1.0000      -1.256122       -34.1808 
  34   1.0000      -1.249649       -34.0047 
  35   1.0000      -1.246740       -33.9255 
  36   1.0000      -1.234626       -33.5959 
  37   1.0000      -1.208253       -32.8782 
  38   1.0000      -0.963331       -26.2136 
  39   1.0000      -0.903636       -24.5892 
  40   1.0000      -0.833341       -22.6764 
  41   1.0000      -0.814570       -22.1656 
  42   1.0000      -0.780940       -21.2505 
  43   1.0000      -0.744033       -20.2462 
  44   1.0000      -0.700795       -19.0696 
  45   1.0000      -0.673050       -18.3146 
  46   1.0000      -0.649870       -17.6839 
  47   1.0000      -0.632220       -17.2036 
  48   1.0000      -0.624139       -16.9837 
  49   1.0000      -0.622941       -16.9511 
  50   1.0000      -0.604457       -16.4481 
  51   1.0000      -0.600438       -16.3388 
  52   1.0000      -0.596903       -16.2425 
  53   1.0000      -0.595214       -16.1966 
  54   1.0000      -0.588966       -16.0266 
  55   1.0000      -0.576175       -15.6785 
  56   1.0000      -0.572215       -15.5708 
  57   1.0000      -0.559665       -15.2293 
  58   1.0000      -0.555971       -15.1287 
  59   1.0000      -0.551665       -15.0116 
  60   1.0000      -0.537731       -14.6324 
  61   1.0000      -0.497933       -13.5495 
  62   1.0000      -0.493487       -13.4285 
  63   1.0000      -0.486938       -13.2503 
  64   1.0000      -0.484083       -13.1726 
  65   1.0000      -0.479350       -13.0438 
  66   1.0000      -0.478215       -13.0129 
  67   1.0000      -0.467924       -12.7329 
  68   1.0000      -0.465309       -12.6617 
  69   1.0000      -0.462089       -12.5741 
  70   1.0000      -0.460271       -12.5246 
  71   1.0000      -0.459634       -12.5073 
  72   1.0000      -0.448280       -12.1983 
  73   1.0000      -0.446920       -12.1613 
  74   1.0000      -0.445791       -12.1306 
  75   1.0000      -0.442866       -12.0510 
  76   1.0000      -0.437732       -11.9113 
  77   1.0000      -0.435675       -11.8553 
  78   1.0000      -0.431741       -11.7483 
  79   1.0000      -0.429976       -11.7003 
  80   1.0000      -0.425425       -11.5764 
  81   1.0000      -0.422166       -11.4877 
  82   1.0000      -0.420275       -11.4363 
  83   1.0000      -0.416210       -11.3257 
  84   1.0000      -0.410840       -11.1795 
  85   1.0000      -0.399960       -10.8835 
  86   1.0000      -0.397599       -10.8192 
  87   1.0000      -0.382372       -10.4049 
  88   1.0000      -0.377049       -10.2600 
  89   1.0000      -0.355524        -9.6743 
  90   1.0000      -0.338308        -9.2058 
  91   1.0000      -0.324765        -8.8373 
  92   1.0000      -0.240663        -6.5488 
  93   1.0000      -0.232777        -6.3342 
  94   1.0000      -0.229288        -6.2392 
  95   0.0000      -0.133381        -3.6295 
  96   0.0000      -0.030218        -0.8223 
  97   0.0000      -0.011721        -0.3190 
  98   0.0000       0.022041         0.5998 
  99   0.0000       0.040017         1.0889 
 100   0.0000       0.049131         1.3369 
 101   0.0000       0.088233         2.4009 
 102   0.0000       0.103520         2.8169 
 103   0.0000       0.108361         2.9487 
 104   0.0000       0.116301         3.1647 
 105   0.0000       0.122551         3.3348 
*Only the first 10 virtual orbitals were printed.

                    ********************************
                    * MULLIKEN POPULATION ANALYSIS *
                    ********************************

--------------------------------------------
MULLIKEN ATOMIC CHARGES AND SPIN POPULATIONS
--------------------------------------------
   0 C :    0.240463   -0.000140
   1 O :   -0.558853    0.000609
   2 O :   -0.560866    0.000170
   3 C :    0.357912   -0.000122
   4 C :    0.334927   -0.001166
   5 C :    0.394325   -0.004822
   6 C :    0.080111    0.866700
   7 C :    0.340665    0.005379
   8 C :    0.333705   -0.004492
   9 C :    0.470542   -0.000526
  10 F :   -0.199703   -0.000016
  11 F :   -0.212918    0.000009
  12 F :   -0.185756    0.000535
  13 F :   -0.187395    0.000329
  14 F :   -0.178459    0.000305
  15 F :   -0.170969    0.025798
  16 F :   -0.158622    0.080928
  17 F :   -0.165021    0.029905
  18 F :   -0.174150   -0.000314
  19 F :   -0.167533    0.000837
  20 F :   -0.164253    0.000211
  21 F :   -0.157756    0.000094
  22 F :   -0.154896   -0.000209
  23 F :   -0.155501   -0.000001
Sum of atomic charges         :   -1.0000000
Sum of atomic spin populations:    1.0000000

-----------------------------------------------------
MULLIKEN REDUCED ORBITAL CHARGES AND SPIN POPULATIONS
-----------------------------------------------------
CHARGE
  0 C s       :     3.147010  s :     3.147010
      pz      :     0.833570  p :     2.402990
      px      :     0.856899
      py      :     0.712521
      dz2     :     0.012531  d :     0.193236
      dxz     :     0.014900
      dyz     :     0.056936
      dx2y2   :     0.050690
      dxy     :     0.058180
      f0      :     0.001647  f :     0.016302
      f+1     :     0.001037
      f-1     :     0.002048
      f+2     :     0.002443
      f-2     :     0.001604
      f+3     :     0.003596
      f-3     :     0.003925

  1 O s       :     3.875442  s :     3.875442
      pz      :     1.593927  p :     4.659100
      px      :     1.636884
      py      :     1.428290
      dz2     :     0.003073  d :     0.023078
      dxz     :     0.001656
      dyz     :     0.005284
      dx2y2   :     0.005468
      dxy     :     0.007596
      f0      :     0.000110  f :     0.001233
      f+1     :     0.000055
      f-1     :     0.000170
      f+2     :     0.000115
      f-2     :     0.000187
      f+3     :     0.000356
      f-3     :     0.000240

  2 O s       :     3.872755  s :     3.872755
      pz      :     1.620334  p :     4.663300
      px      :     1.738171
      py      :     1.304795
      dz2     :     0.003105  d :     0.023556
      dxz     :     0.000321
      dyz     :     0.006064
      dx2y2   :     0.008747
      dxy     :     0.005318
      f0      :     0.000116  f :     0.001255
      f+1     :     0.000016
      f-1     :     0.000222
      f+2     :     0.000211
      f-2     :     0.000032
      f+3     :     0.000285
      f-3     :     0.000374

  3 C s       :     3.111589  s :     3.111589
      pz      :     0.679372  p :     2.260973
      px      :     0.942655
      py      :     0.638946
      dz2     :     0.044935  d :     0.245274
      dxz     :     0.046168
      dyz     :     0.060818
      dx2y2   :     0.042719
      dxy     :     0.050635
      f0      :     0.005151  f :     0.024251
      f+1     :     0.003537
      f-1     :     0.003692
      f+2     :     0.003329
      f-2     :     0.001968
      f+3     :     0.003573
      f-3     :     0.003002

  4 C s       :     3.117388  s :     3.117388
      pz      :     0.603615  p :     2.247937
      px      :     0.943296
      py      :     0.701025
      dz2     :     0.059474  d :     0.273161
      dxz     :     0.056682
      dyz     :     0.066311
      dx2y2   :     0.034397
      dxy     :     0.056297
      f0      :     0.003467  f :     0.026587
      f+1     :     0.004777
      f-1     :     0.007778
      f+2     :     0.002063
      f-2     :     0.002574
      f+3     :     0.003497
      f-3     :     0.002431

  5 C s       :     3.116174  s :     3.116174
      pz      :     0.575796  p :     2.174062
      px      :     0.903974
      py      :     0.694292
      dz2     :     0.072818  d :     0.288381
      dxz     :     0.062964
      dyz     :     0.058813
      dx2y2   :     0.035408
      dxy     :     0.058378
      f0      :     0.004825  f :     0.027058
      f+1     :     0.004189
      f-1     :     0.005917
      f+2     :     0.003052
      f-2     :     0.004382
      f+3     :     0.002577
      f-3     :     0.002115

  6 C s       :     3.337017  s :     3.337017
      pz      :     0.741551  p :     2.423302
      px      :     0.914619
      py      :     0.767132
      dz2     :     0.038216  d :     0.144416
      dxz     :     0.028746
      dyz     :     0.023042
      dx2y2   :     0.020874
      dxy     :     0.033538
      f0      :     0.003264  f :     0.015154
      f+1     :     0.002508
      f-1     :     0.001919
      f+2     :     0.001779
      f-2     :     0.002682
      f+3     :     0.001569
      f-3     :     0.001433

  7 C s       :     3.129236  s :     3.129236
      pz      :     0.584588  p :     2.215306
      px      :     0.931200
      py      :     0.699518
      dz2     :     0.072030  d :     0.287702
      dxz     :     0.062850
      dyz     :     0.060391
      dx2y2   :     0.033819
      dxy     :     0.058612
      f0      :     0.004644  f :     0.027091
      f+1     :     0.004213
      f-1     :     0.006304
      f+2     :     0.002994
      f-2     :     0.004206
      f+3     :     0.002619
      f-3     :     0.002111

  8 C s       :     3.108666  s :     3.108666
      pz      :     0.615952  p :     2.250172
      px      :     0.943332
      py      :     0.690888
      dz2     :     0.058761  d :     0.280375
      dxz     :     0.059434
      dyz     :     0.071468
      dx2y2   :     0.032860
      dxy     :     0.057852
      f0      :     0.003471  f :     0.027083
      f+1     :     0.004889
      f-1     :     0.008093
      f+2     :     0.002092
      f-2     :     0.002368
      f+3     :     0.003753
      f-3     :     0.002417

  9 C s       :     3.031192  s :     3.031192
      pz      :     0.646586  p :     2.108711
      px      :     0.803197
      py      :     0.658928
      dz2     :     0.066515  d :     0.350277
      dxz     :     0.068325
      dyz     :     0.085126
      dx2y2   :     0.063295
      dxy     :     0.067016
      f0      :     0.004503  f :     0.039278
      f+1     :     0.007831
      f-1     :     0.008778
      f+2     :     0.004339
      f-2     :     0.003042
      f+3     :     0.007313
      f-3     :     0.003473

 10 F s       :     3.923020  s :     3.923020
      pz      :     1.898519  p :     5.261111
      px      :     1.887803
      py      :     1.474789
      dz2     :     0.002084  d :     0.014958
      dxz     :     0.000317
      dyz     :     0.002845
      dx2y2   :     0.005682
      dxy     :     0.004029
      f0      :     0.000047  f :     0.000614
      f+1     :     0.000015
      f-1     :     0.000119
      f+2     :     0.000071
      f-2     :     0.000018
      f+3     :     0.000167
      f-3     :     0.000177

 11 F s       :     3.927191  s :     3.927191
      pz      :     1.495413  p :     5.270784
      px      :     1.903715
      py      :     1.871656
      dz2     :     0.006369  d :     0.014351
      dxz     :     0.003508
      dyz     :     0.003539
      dx2y2   :     0.000468
      dxy     :     0.000467
      f0      :     0.000207  f :     0.000592
      f+1     :     0.000136
      f-1     :     0.000168
      f+2     :     0.000038
      f-2     :     0.000038
      f+3     :     0.000003
      f-3     :     0.000003

 12 F s       :     3.927136  s :     3.927136
      pz      :     1.812671  p :     5.241602
      px      :     1.904980
      py      :     1.523951
      dz2     :     0.002074  d :     0.016333
      dxz     :     0.000802
      dyz     :     0.005252
      dx2y2   :     0.004842
      dxy     :     0.003362
      f0      :     0.000075  f :     0.000684
      f+1     :     0.000004
      f-1     :     0.000120
      f+2     :     0.000180
      f-2     :     0.000064
      f+3     :     0.000110
      f-3     :     0.000131

 13 F s       :     3.928536  s :     3.928536
      pz      :     1.453757  p :     5.242011
      px      :     1.906348
      py      :     1.881906
      dz2     :     0.008296  d :     0.016172
      dxz     :     0.003788
      dyz     :     0.003496
      dx2y2   :     0.000294
      dxy     :     0.000298
      f0      :     0.000330  f :     0.000677
      f+1     :     0.000157
      f-1     :     0.000159
      f+2     :     0.000011
      f-2     :     0.000018
      f+3     :     0.000001
      f-3     :     0.000001

 14 F s       :     3.927857  s :     3.927857
      pz      :     1.707260  p :     5.233368
      px      :     1.900718
      py      :     1.625390
      dz2     :     0.002688  d :     0.016546
      dxz     :     0.001660
      dyz     :     0.006524
      dx2y2   :     0.003084
      dxy     :     0.002590
      f0      :     0.000077  f :     0.000688
      f+1     :     0.000014
      f-1     :     0.000183
      f+2     :     0.000188
      f-2     :     0.000105
      f+3     :     0.000060
      f-3     :     0.000060

 15 F s       :     3.927301  s :     3.927301
      pz      :     1.503332  p :     5.226527
      px      :     1.901578
      py      :     1.821617
      dz2     :     0.006740  d :     0.016454
      dxz     :     0.003337
      dyz     :     0.004930
      dx2y2   :     0.000634
      dxy     :     0.000813
      f0      :     0.000226  f :     0.000687
      f+1     :     0.000110
      f-1     :     0.000231
      f+2     :     0.000050
      f-2     :     0.000060
      f+3     :     0.000005
      f-3     :     0.000004

 16 F s       :     3.933010  s :     3.933010
      pz      :     1.568796  p :     5.208099
      px      :     1.904620
      py      :     1.734683
      dz2     :     0.005032  d :     0.016839
      dxz     :     0.002553
      dyz     :     0.005992
      dx2y2   :     0.001728
      dxy     :     0.001533
      f0      :     0.000123  f :     0.000674
      f+1     :     0.000050
      f-1     :     0.000234
      f+2     :     0.000129
      f-2     :     0.000096
      f+3     :     0.000021
      f-3     :     0.000020

 17 F s       :     3.929104  s :     3.929104
      pz      :     1.717516  p :     5.218615
      px      :     1.895692
      py      :     1.605407
      dz2     :     0.002623  d :     0.016614
      dxz     :     0.001532
      dyz     :     0.006481
      dx2y2   :     0.003298
      dxy     :     0.002680
      f0      :     0.000077  f :     0.000688
      f+1     :     0.000010
      f-1     :     0.000176
      f+2     :     0.000193
      f-2     :     0.000100
      f+3     :     0.000064
      f-3     :     0.000067

 18 F s       :     3.929580  s :     3.929580
      pz      :     1.493167  p :     5.227296
      px      :     1.901056
      py      :     1.833072
      dz2     :     0.007078  d :     0.016589
      dxz     :     0.003456
      dyz     :     0.004762
      dx2y2   :     0.000568
      dxy     :     0.000724
      f0      :     0.000240  f :     0.000686
      f+1     :     0.000116
      f-1     :     0.000225
      f+2     :     0.000044
      f-2     :     0.000054
      f+3     :     0.000004
      f-3     :     0.000003

 19 F s       :     3.930278  s :     3.930278
[...]
      f-2     :    -0.000002
      f+3     :     0.000001
      f-3     :    -0.000000

 16 F s       :     0.003127  s :     0.003127
      pz      :     0.042588  p :     0.093034
      px      :     0.005797
      py      :     0.044648
      dz2     :     0.006751  d :     0.010681
      dxz     :     0.000552
      dyz     :     0.000623
      dx2y2   :     0.002685
      dxy     :     0.000071
      f0      :     0.000212  f :     0.000572
      f+1     :     0.000032
      f-1     :     0.000171
      f+2     :     0.000067
      f-2     :     0.000015
      f+3     :     0.000002
      f-3     :     0.000073

 17 F s       :     0.002490  s :     0.002490
      pz      :     0.001123  p :     0.033717
      px      :     0.015148
      py      :     0.017447
      dz2     :     0.000116  d :     0.000156
      dxz     :    -0.000005
      dyz     :    -0.000070
      dx2y2   :    -0.000024
      dxy     :     0.000139
      f0      :    -0.000000  f :     0.000007
      f+1     :     0.000000
      f-1     :     0.000006
      f+2     :    -0.000004
      f-2     :    -0.000001
      f+3     :     0.000008
      f-3     :    -0.000003

 18 F s       :     0.000509  s :     0.000509
      pz      :     0.001619  p :     0.011789
      px      :     0.001328
      py      :     0.008841
      dz2     :    -0.000111  d :    -0.000129
      dxz     :    -0.000124
      dyz     :     0.000087
      dx2y2   :    -0.000001
      dxy     :     0.000022
      f0      :    -0.000007  f :    -0.000011
      f+1     :    -0.000006
      f-1     :     0.000001
      f+2     :     0.000002
      f-2     :    -0.000001
      f+3     :    -0.000000
      f-3     :    -0.000000

 19 F s       :     0.000227  s :     0.000227
      pz      :    -0.000073  p :     0.001308
      px      :     0.000895
      py      :     0.000486
      dz2     :     0.000024  d :     0.000073
      dxz     :    -0.000003
      dyz     :     0.000003
      dx2y2   :     0.000046
      dxy     :     0.000002
      f0      :     0.000000  f :     0.000002
      f+1     :     0.000000
      f-1     :     0.000000
      f+2     :     0.000000
      f-2     :     0.000000
      f+3     :    -0.000000
      f-3     :     0.000002

 20 F s       :     0.000057  s :     0.000057
      pz      :    -0.000042  p :     0.001607
      px      :     0.000747
      py      :     0.000903
      dz2     :     0.000012  d :     0.000075
      dxz     :     0.000031
      dyz     :     0.000019
      dx2y2   :     0.000005
      dxy     :     0.000008
      f0      :     0.000001  f :     0.000004
      f+1     :     0.000000
      f-1     :     0.000001
      f+2     :     0.000000
      f-2     :     0.000001
      f+3     :    -0.000000
      f-3     :     0.000000

 21 F s       :     0.000008  s :     0.000008
      pz      :     0.000011  p :     0.000063
      px      :     0.000048
      py      :     0.000004
      dz2     :    -0.000001  d :     0.000001
      dxz     :     0.000000
      dyz     :     0.000002
      dx2y2   :     0.000000
      dxy     :    -0.000001
      f0      :    -0.000000  f :    -0.000000
      f+1     :    -0.000000
      f-1     :    -0.000000
      f+2     :     0.000000
      f-2     :     0.000000
      f+3     :    -0.000000
      f-3     :    -0.000000

 22 F s       :     0.000006  s :     0.000006
      pz      :    -0.000001  p :     0.000142
      px      :     0.000144
      py      :    -0.000001
      dz2     :     0.000000  d :     0.000003
      dxz     :     0.000000
      dyz     :    -0.000000
      dx2y2   :     0.000003
      dxy     :    -0.000000
      f0      :     0.000000  f :     0.000000
      f+1     :     0.000000
      f-1     :     0.000000
      f+2     :     0.000000
      f-2     :    -0.000000
      f+3     :     0.000000
      f-3     :     0.000000

 23 F s       :    -0.000004  s :    -0.000004
      pz      :    -0.000004  p :     0.000017
      px      :     0.000009
      py      :     0.000013
      dz2     :    -0.000001  d :    -0.000000
      dxz     :    -0.000001
      dyz     :     0.000000
      dx2y2   :     0.000001
      dxy     :     0.000000
      f0      :    -0.000000  f :     0.000000
      f+1     :    -0.000000
      f-1     :     0.000000
      f+2     :     0.000000
      f-2     :    -0.000000
      f+3     :     0.000000
      f-3     :     0.000000



                      *****************************
                      * MAYER POPULATION ANALYSIS *
                      *****************************

  NA   - Mulliken gross atomic population
  ZA   - Total nuclear charge
  QA   - Mulliken gross atomic charge
  VA   - Mayer's total valence
  BVA  - Mayer's bonded valence
  FA   - Mayer's free valence

  ATOM       NA         ZA         QA         VA         BVA        FA
  0 C      5.7847     6.0000     0.2153     4.5838     4.5838     0.0000
  1 O      8.5091     8.0000    -0.5091     1.9582     1.9581     0.0000
  2 O      8.5238     8.0000    -0.5238     1.9430     1.9430     0.0000
  3 C      5.6610     6.0000     0.3390     3.9085     3.9085     0.0000
  4 C      5.7097     6.0000     0.2903     4.1000     4.0993     0.0007
  5 C      5.6186     6.0000     0.3814     4.2402     4.2372     0.0030
  6 C      5.8794     6.0000     0.1206     3.9009     3.2949     0.6060
  7 C      5.6685     6.0000     0.3315     4.1989     4.1959     0.0029
  8 C      5.6596     6.0000     0.3404     4.1813     4.1812     0.0000
  9 C      5.5297     6.0000     0.4703     4.4716     4.4716     0.0000
 10 F      9.2084     9.0000    -0.2084     1.0768     1.0768     0.0000
 11 F      9.2151     9.0000    -0.2151     1.0628     1.0628     0.0000
 12 F      9.1861     9.0000    -0.1861     1.1227     1.1227     0.0000
 13 F      9.1928     9.0000    -0.1928     1.1202     1.1202     0.0000
 14 F      9.1767     9.0000    -0.1767     1.1285     1.1284     0.0001
 15 F      9.1781     9.0000    -0.1781     1.1298     1.1295     0.0003
 16 F      9.1482     9.0000    -0.1482     1.1858     1.1753     0.0105
 17 F      9.1776     9.0000    -0.1776     1.1263     1.1250     0.0013
 18 F      9.1740     9.0000    -0.1740     1.1341     1.1339     0.0002
 19 F      9.1668     9.0000    -0.1668     1.1531     1.1531     0.0000
 20 F      9.1644     9.0000    -0.1644     1.1539     1.1539     0.0000
 21 F      9.1564     9.0000    -0.1564     1.1642     1.1642     0.0000
 22 F      9.1560     9.0000    -0.1560     1.1600     1.1600     0.0000
 23 F      9.1552     9.0000    -0.1552     1.1639     1.1639     0.0000

  Mayer bond orders larger than 0.100000
B(  0-C ,  1-O ) :   1.8512 B(  0-C ,  2-O ) :   1.8245 B(  0-C ,  3-C ) :   0.8399 
B(  3-C ,  4-C ) :   0.9265 B(  3-C , 10-F ) :   1.0369 B(  3-C , 11-F ) :   1.0258 
B(  4-C ,  5-C ) :   0.9202 B(  4-C , 12-F ) :   1.0575 B(  4-C , 13-F ) :   1.0530 
B(  5-C ,  6-C ) :   1.0115 B(  5-C , 14-F ) :   1.0750 B(  5-C , 15-F ) :   1.0681 
B(  6-C ,  7-C ) :   1.0364 B(  6-C , 16-F ) :   1.1056 B(  7-C ,  8-C ) :   0.9268 
B(  7-C , 17-F ) :   1.0647 B(  7-C , 18-F ) :   1.0665 B(  8-C ,  9-C ) :   0.9513 
B(  8-C , 19-F ) :   1.0839 B(  8-C , 20-F ) :   1.0851 B(  9-C , 21-F ) :   1.1344 
B(  9-C , 22-F ) :   1.1292 B(  9-C , 23-F ) :   1.1428 

-------
TIMINGS
-------

Total SCF time: 0 days 0 hours 0 min 46 sec 

Total time                  ....      46.339 sec
Sum of individual times     ....      45.276 sec  ( 97.7%)

SCF preparation             ....       1.350 sec  (  2.9%)
Fock matrix formation       ....      38.585 sec  ( 83.3%)
  Startup                   ....       0.245 sec  (  0.6% of F)
  Split-RI-J                ....       2.429 sec  (  6.3% of F)
  Chain of spheres X        ....      24.372 sec  ( 63.2% of F)
  XC integration            ....       8.806 sec  ( 22.8% of F)
    XC Preparation          ....       0.000 sec  (  0.0% of XC)
    Basis function eval.    ....       0.617 sec  (  7.0% of XC)
    Density eval.           ....       2.793 sec  ( 31.7% of XC)
    XC-Functional eval.     ....       0.173 sec  (  2.0% of XC)
    XC-Potential eval.      ....       2.760 sec  ( 31.3% of XC)
  CPCM terms                ....       2.284 sec  (  5.9% of F)
Diagonalization             ....       0.000 sec  (  0.0%)
Density matrix formation    ....       0.426 sec  (  0.9%)
Total Energy calculation    ....       0.341 sec  (  0.7%)
Population analysis         ....       0.406 sec  (  0.9%)
Orbital Transformation      ....       0.539 sec  (  1.2%)
Orbital Orthonormalization  ....       0.000 sec  (  0.0%)
DIIS solution               ....       0.667 sec  (  1.4%)
SOSCF solution              ....       2.963 sec  (  6.4%)
Finished LeanSCF after  46.9 sec

Maximum memory used throughout the entire LEANSCF-calculation: 104.5 MB


-------------------------------------------------------------------------------
                          DFT DISPERSION CORRECTION                            
                                                                               
                              DFTD3 V3.1  Rev 1                                
                          USING Becke-Johnson damping                          
-------------------------------------------------------------------------------
The R2SCANh functional is recognized
Active option DFTDOPT                   ...         4   

molecular C6(AA) [au] = 6297.152677 


            DFT-D V3
 parameters
 s6 scaling factor         :     1.0000 
 a1 scaling factor         :     0.4709 
 s8 scaling factor         :     1.1236 
 a2 scaling factor         :     5.9157 
 ad hoc parameters k1-k3   :    16.0000     1.3333    -4.0000 

 Edisp/kcal,au: -5.077592678155  -0.008091658129 
 E6   /kcal   :  -3.700093135 
 E8   /kcal   :  -1.377499543 
 % E8         :  27.128988679 

-------------------------   ----------------
Dispersion correction           -0.008091658
-------------------------   ----------------


-------------------------   --------------------
FINAL SINGLE POINT ENERGY     -1853.116887336885
-------------------------   --------------------

                                *** OPTIMIZATION RUN DONE ***



           ************************************************************
           *        Program running with 20 parallel MPI-processes    *
           *              working on a common directory               *
           ************************************************************

------------------------------------------------------------------------------
                              ORCA PROPERTY CALCULATIONS
------------------------------------------------------------------------------

GBWName                                 ... rf_mecn_opt_r2s_C5_D_B.gbw
Number of atoms                         ...     24
Number of basis functions               ...    744
Max core memory                         ...   8000 MB

Electric properties:
Dipole moment                           ... YES
Quadrupole moment                       ...  NO
Static polarizability (Dipole/Dipole)   ...  NO
Static polarizability (Dipole/Quad.)    ...  NO
Static polarizability (Quad./Quad.)     ...  NO
Static polarizability (Velocity)        ...  NO

Atomic electric properties:
Dipole moment                           ...  NO
Quadrupole moment                       ...  NO
Static polarizability                   ...  NO

Choice of electric origin               ... Center of mass
Position of electric origin             ...    -0.057992    -0.137790     0.092300

General magnetic properties:
Magnetizability                         ...  NO

EPR properties:
g-Tensor (aka g-matrix)                 ...  NO
Zero-Field splitting spin-orbit         ...  NO
Zero-field splitting spin-spin          ...  NO
Hyperfine couplings                     ...  NO (   0 nuclei)
Quadrupole couplings                    ...  NO (   0 nuclei)
Contact density                         ...  NO (   0 nuclei)

NMR properties:
Chemical shifts                         ...  NO (   0 nuclei)
Spin-rotation constants                 ...  NO (   0 nuclei)
Spin-spin couplings                     ...  NO (   0 nuclei,    0 pairs)

Choice of magnetic origin               ... GIAO
Position of magnetic origin             ...     0.000000     0.000000     0.000000

Properties with geometric perturbations:
SCF Hessian                             ...  NO
IR spectrum                             ...  NO
VCD spectrum                            ...  NO
X-ray spectroscopy properties:
SCF XES/XAS/RIXS spectra                ...  NO


-------------
DIPOLE MOMENT
-------------

Method             : SCF
Type of density    : Electron Density
Multiplicity       :   2
Irrep              :   0
Energy             : -1853.1087956787566782 Eh
Relativity type    : 
Basis              : AO
                                X                 Y                 Z
Electronic contribution:    -16.197365824      -1.629583922       4.502959481
Nuclear contribution   :      8.416895663       0.942236786      -2.256964758
                        -----------------------------------------
Total Dipole Moment    :     -7.780470161      -0.687347136       2.245994723
                        -----------------------------------------
Magnitude (a.u.)       :      8.127278407
Magnitude (Debye)      :     20.657900001



--------------------
Rotational spectrum 
--------------------
 
Rotational constants in cm-1:             0.018322             0.004292             0.004161 
Rotational constants in MHz :           549.280835           128.676704           124.734284 

Dipole components along the rotational axes: 
x,y,z [a.u.] :     7.725120     2.524858    -0.016524 
x,y,z [Debye]:    19.635693     6.417680    -0.042000 

 

Dipole moment calculation done in   0.1 sec 

Maximum memory used throughout the entire PROP-calculation: 54.5 MB

--------------------------------
SUGGESTED CITATIONS FOR THIS RUN
--------------------------------

Below you find a list of papers that are relevant to this ORCA run
We neither can nor want to force you to cite these papers, but we appreciate if you do
You receive ORCA, which is the product of decades of hard work by many enthusiastic individuals, for free
The only thing we kindly ask in return is that you cite our papers,
We deeply appreciate it, if you show your appreciation for ORCA by not just citing the generic ORCA reference.

Please note that relegating all ORCA citations to the supporting information does *not* help us.
SI sections are not indexed - citations you put there will not count into any citation statistics
But we need these citations in order to attract the funding resources that allow us to do what we are doing

Therefore, if you are a happy ORCA user, please consider citing a few of the papers listed below in the main body of your paper

In addition to the list printed below, the program has created the file rf_mecn_opt_r2s_C5_D_B.bibtex that contains the list in bibtex format
You can import this file easily into all common literature databanks and citation aid programs


List of essential papers. We consider these as the minimum necessary citations

  1. Neese,F.
     Software update: the ORCA program system, version 5.0
     WIRES Comput. Molec. Sci., 2022 12(1)e1606
     doi.org/10.1002/wcms.1606

List of papers to cite with high priority. The work reported in these papers was absolutely
necessary for this run to complete.
Our perspective: the developers of density functionals and basis sets usually get cited in chemistry papers
Good! But without the algorithms to do something with them, the functionals or basis sets would not do anything.
Hence, in our opinion, the algorithm design and method developments papers are equally worthy of getting cited

  1. Neese,F.
     An improvement of the resolution of the identity approximation for the formation of the Coulomb matrix
     J. Comp. Chem., 2003 24(14)1740-1747
     doi.org/10.1002/jcc.10318
  2. Neese,F.; Wennmohs,F.; Hansen,A.; Becker,U.
     Efficient, approximate and parallel Hartree-Fock and hybrid DFT calculations. A 'chain-of-spheres' algorithm for the Hartree-Fock exchange
     Chem. Phys., 2009 356(1-3)98-109
     doi.org/10.1016/j.chemphys.2008.10.036
  3. Garcia-Rates,M.; Neese,F.
     Effect of the Solute Cavity on the Solvation Energy and its Derivatives within the Framework of the Gaussian Charge Scheme
     J. Comput. Chem., 2020 41 922-939
     doi.org/10.1002/jcc.26139
  4. Helmich-Paris,B.; de Souza,B.; Neese,F.; Izsák,R.
     An improved chain of spheres for exchange algorithm
     J. Chem. Phys., 2021 155 104109
     doi.org/doi: 10.1063/5.0058766.
  5. Neese,F.
     The SHARK Integral Generation and Digestion System
     J. Comp. Chem., 2022  1-16
     doi.org/10.1002/jcc.26942
  6. Lehtola,S.; Steigemann,C.; Oliveira,M.; Marques,M.
     Recent developments in Libxc - A comprehensive library of functionals for density functional theory
     Software X, 2018 7 
     doi.org/10.1016/j.softx.2017.11.002
  7. Grimme,S.; Antony,J.; Ehrlich,S.; Krieg,H.
     A consistent and accurate ab initio parametrization of density functional dispersion correction (DFT-D) for the 94 elements H-Pu
     J. Chem. Phys., 2010 132 154104
     doi.org/10.1063/1.3382344
  8. Grimme,S.; Ehrlich,S.; Goerigk,L.
     Effect of the damping function in dispersion corrected density functional theory
     J. Comput. Chem., 2011 32(7)1456-1465
     doi.org/10.1002/jcc.21759
  9. Bursch,M.; Neugebauer,H.; Ehlert,S.; Grimme,S.
     Dispersion corrected r2SCAN based global hybrid functionals: r2SCANh, r2SCAN0, and r2SCAN50
     J. Phys. Chem., 2022 156(13)134105
     doi.org/10.1063/5.0086040

List of suggested additional citations. These are papers that are important in the 'surrounding' of 
of this run, or papers that preceded the highly important papers. If you like your results we are grateful for a citation.

  1. Izsak,R.; Neese,F.
     An overlap fitted chain of spheres exchange method
     J. Chem. Phys., 2011 135 144105
     doi.org/10.1063/1.3646921
  2. Izsak,R.; Hansen,A.; Neese,F.
     The resolution of identity and chain of spheres approximations for the LPNO-CCSD singles Fock term
     Molec. Phys., 2012 110 2413-2417
     doi.org/10.1080/00268976.2012.687466
  3. Neese,F.
     The ORCA program system
     WIRES Comput. Molec. Sci., 2012 2(1)73-78
     doi.org/10.1002/wcms.81
  4. Izsak,R.; Neese,F.; Klopper,W.
     Robust fitting techniques in the chain of spheres approximation to the Fock exchange: The role of the complementary space
     J. Chem. Phys., 2013 139 
     doi.org/10.1063/1.4819264
  5. Neese,F.
     Software update: the ORCA program system, version 4.0
     WIRES Comput. Molec. Sci., 2018 8(1)1-6
     doi.org/10.1002/wcms.1327
  6. Neese,F.; Wennmohs,F.; Becker,U.; Riplinger,C.
     The ORCA quantum chemistry program package
     J. Chem. Phys., 2020 152 Art. No. L224108
     doi.org/10.1063/5.0004608
  7. Wittmann,L.; Neugebauer,H.; Grimme,S.; Bursch,M.
     Dispersion-corrected r2SCAN based double-hybrid functionals
     J. Chem. Phys., 2023 159(22)224103
     doi.org/10.1063/5.0174988

List of optional additional citations

  1. Neese,F.
     Approximate second-order SCF convergence for spin unrestricted wavefunctions
     Chem. Phys. Lett., 2000 325(1-3)93-98
     doi.org/10.1016/s0009-2614(00)00662-x

Timings for individual modules:

Sum of individual times          ...     1629.422 sec (=  27.157 min)
Startup calculation              ...       77.234 sec (=   1.287 min)   4.7 %
SCF iterations                   ...     1198.709 sec (=  19.978 min)  73.6 %
Property calculations            ...        0.943 sec (=   0.016 min)   0.1 %
SCF Gradient evaluation          ...      352.108 sec (=   5.868 min)  21.6 %
Geometry relaxation              ...        0.428 sec (=   0.007 min)   0.0 %
                             ****ORCA TERMINATED NORMALLY****
TOTAL RUN TIME: 0 days 0 hours 27 minutes 23 seconds 162 msec
