
                                 *****************
                                 * O   R   C   A *
                                 *****************

                                            #,                                       
                                            ###                                      
                                            ####                                     
                                            #####                                    
                                            ######                                   
                                           ########,                                 
                                     ,,################,,,,,                         
                               ,,#################################,,                 
                          ,,##########################################,,             
                       ,#########################################, ''#####,          
                    ,#############################################,,   '####,        
                  ,##################################################,,,,####,       
                ,###########''''           ''''###############################       
              ,#####''   ,,,,##########,,,,          '''####'''          '####       
            ,##' ,,,,###########################,,,                        '##       
           ' ,,###''''                  '''############,,,                           
         ,,##''                                '''############,,,,        ,,,,,,###''
      ,#''                                            '''#######################'''  
     '                                                          ''''####''''         
             ,#######,   #######,   ,#######,      ##                                
            ,#'     '#,  ##    ##  ,#'     '#,    #''#        ,####,   ,####,        
            ##       ##  ##   ,#'  ##            #'  '#       #'       #'  '#        
            ##       ##  #######   ##           ,######,      #####,   #    #        
            '#,     ,#'  ##    ##  '#,     ,#' ,#      #,     #,   #   #,  ,#        
             '#######'   ##     ##  '#######'  #'      '#     '####' # '####'        



                #########################################################
                #                        -***-                          #
                #          Department of theory and spectroscopy        #
                #                                                       #
                #                      Frank Neese                      #
                #                                                       #
                #     Directorship, Architecture, Infrastructure        #
                #                    SHARK, DRIVERS                     #
                #        Core code/Algorithms in most modules           #
                #                                                       #
                #        Max Planck Institute fuer Kohlenforschung      #
                #                Kaiser Wilhelm Platz 1                 #
                #                 D-45470 Muelheim/Ruhr                 #
                #                      Germany                          #
                #                                                       #
                #                  All rights reserved                  #
                #                        -***-                          #
                #########################################################


                         Program Version 6.0.1  -  RELEASE   -


 With contributions from (in alphabetic order):
[Max-Planck-Institut fuer Kohlenforschung]                               
  Daniel Aravena         : Magnetic Suceptibility                        
  Michael Atanasov       : Ab Initio Ligand Field Theory (pilot matlab implementation)
  Alexander A. Auer      : GIAO ZORA, VPT2 properties, NMR spectrum      
  Ute Becker             : All parallelization in ORCA, NUMFREQ, NUMCALC 
  Giovanni Bistoni       : ED, misc. LED, open-shell LED, HFLD           
  Martin Brehm           : Molecular dynamics                            
  Dmytro Bykov           : pre 5.0 version of the SCF Hessian            
  Marcos Casanova-Páez   : Triplet and SCS-CIS(D). UHF-(DLPNO)-IP/EA/STEOM-CCSD. UHF-CVS-IP/STEOM-CCSD   
  Vijay G. Chilkuri      : MRCI spin determinant printing, contributions to CSF-ICE 
  Pauline Colinet        : FMM embedding                                 
  Dipayan Datta          : RHF DLPNO-CCSD density                        
  Achintya Kumar Dutta   : EOM-CC, STEOM-CC                              
  Nicolas Foglia         : Exact transition moments, OPA infrastructure, MCD improvements    
  Dmitry Ganyushin       : Spin-Orbit,Spin-Spin,Magnetic field MRCI      
  Miquel Garcia-Rates    : C-PCM and meta-GGA Hessian, CCSD/C-PCM, Gaussian charge scheme 
  Tiago L. C. Gouveia    : GS-ROHF, GS-ROCIS                             
  Yang Guo               : DLPNO-NEVPT2, F12-NEVPT2, CIM, IAO-localization        
  Andreas Hansen         : Spin unrestricted coupled pair/coupled cluster methods 
  Ingolf Harden          : AUTO-CI MPn and infrastructure                
  Benjamin Helmich-Paris : MC-RPA, TRAH-(SCF,CASSCF), AVAS, COSX integrals, SCF dyn. polar. 
  Lee Huntington         : MR-EOM, pCC                                   
  Robert Izsak           : Overlap fitted RIJCOSX, COSX-SCS-MP3, EOM     
  Riya Kayal             : Wick's Theorem for AUTO-CI, AUTO-CI UHF-CCSDT 
  Emily Kempfer          : AUTO-CI, RHF CISDT and CCSDT                  
  Christian Kollmar      : KDIIS, OOCD, Brueckner-CCSD(T), CCSD density, CASPT2, CASPT2-K, improved NEVPT2 
  Axel Koslowski         : Symmetry handling                             
  Simone Kossmann        : meta-GGA functionals, TD-DFT gradient, OOMP2, (MP2 Hessian; deprecated post 5.0) 
  Lucas Lang             : DCDCAS                                        
  Marvin Lechner         : AUTO-CI (C++ implementation), FIC-MRCC        
  Spencer Leger          : CASSCF response                               
  Dagmar Lenk            : GEPOL surface, SMD, ORCA-2-JSON               
  Dimitrios Liakos       : Extrapolation schemes; Compound Job, initial MDCI parallelization 
  Dimitrios Manganas     : Further ROCIS development; embedding schemes. LFT, Crystal Embedding 
  Dimitrios Pantazis     : SARC Basis sets                               
  Anastasios Papadopoulos: AUTO-CI, single reference methods and gradients 
  Taras Petrenko         : pre 6.0 DFT Hessian and TD-DFT gradient, (ASA, deprecated), ECA, 1-Electron XAS/XES, NRVS 
  Peter Pinski           : DLPNO-MP2, DLPNO-MP2 Gradient                 
  Christoph Reimann      : Effective Core Potentials                     
  Marius Retegan         : Local ZFS, SOC                                
  Christoph Riplinger    : Optimizer, TS searches, QM/MM, DLPNO-CCSD(T), (RO)-DLPNO pert. Triples 
  Michael Roemelt        : Original ROCIS implementation                 
  Masaaki Saitow         : Open-shell DLPNO-CCSD energy and density      
  Barbara Sandhoefer     : DKH picture change effects                    
  Kantharuban Sivalingam : CASSCF convergence/infrastructure, NEVPT2 and variants, FIC-MRCI 
  Bernardo de Souza      : ESD, SOC TD-DFT                               
  Georgi L. Stoychev     : AutoAux, RI-MP2 NMR, DLPNO-MP2 response, X2C  
  Van Anh Tran           : RI-MP2 g-tensors                              
  Willem Van den Heuvel  : Paramagnetic NMR                              
  Zikuan Wang            : NOTCH, Electric field optimization            
  Frank Wennmohs         : Technical directorship and infrastructure     
  Hang Xu                : AUTO-CI-Response properties                   
                                                                         
[FACCTs GmbH]                                                            
  Markus Bursch, Miquel Garcia-Rates, Christoph Riplinger, Bernardo de Souza, Georgi L. Stoychev 
                                                                 
  APM, Basis sets (HGBS, AHGBS, def-TZVP (Ac-Lr), def2-XVPD (La-Lu)), CI-OPT, improved COSX, DLPNO-Multilevel,           
  DOCKER, DRACO, updates on ESD, GOAT, IRC, LR-CPCM, MBIS, meta-GGA TD-DFT gradient, ML-optimized integration grids, 
  MM, NACMEs, nearIR, NEB, NEB-TS, NL-DFT gradient (VV10), 2- and 3-layer-ONIOM, interface openCOSMO-RS, QMMM,   
  Crystal-QMMM, SF, symmetry and pop. for TD-DFT, r2SCAN hybrids, SOLVATOR                                   
                                                                         
[Other institutions]                                                     
  V. Asgeirsson          : NEB                                           
  Christoph Bannwarth    : sTDA-DFT, sTD-DFT, PBEh-3c, B97-3c, D3        
  Sebastian Ehlert       : rSCAN, r2SCAN, r2SCAN-3c, D4, dhf basis sets  
  Marvin Friede          : D4 for Fr, Ra, Ac-Lr                          
  Lars Goerigk           : TD-DFT with DH, B97 family of functionals     
  Stefan Grimme          : VdW corrections, initial TS optimization, DFT functionals, gCP, sTDA/sTD-DF 
  Waldemar Hujo          : DFT-NL                                        
  H. Jonsson             : NEB                                           
  Holger Kruse           : gCP                                           
  Marcel Mueller         : wB97X-3c, vDZP basis set                      
  Hagen Neugebauer       : wr2SCAN                                       
  Tobias Risthaus        : range-separated hybrid DFT                    
  Lukas Wittmann         : regularized MP2, r2SCAN double-hybrids, wr2SCAN        
                                                                         
We gratefully acknowledge several colleagues who have allowed us to      
interface, adapt or use parts of their codes:                            
  Ed Valeev, F. Pavosevic, A. Kumar             : LibInt (2-el integral package), F12 methods 
  Garnet Chan, S. Sharma, J. Yang, R. Olivares  : DMRG                   
  Ulf Ekstrom                                   : XCFun DFT Library      
  Mihaly Kallay                                 : mrcc  (arbitrary order and MRCC methods)
  Frank Weinhold                                : gennbo (NPA and NBO analysis)           
  Simon Mueller                                 : openCOSMO-RS                            
  Christopher J. Cramer and Donald G. Truhlar   : smd solvation model                     
  S Lehtola, MJT Oliveira, MAL Marques          : LibXC Library                           
  Liviu Ungur et al                             : ANISO software                          


 Your calculation uses the libint2 library for the computation of 2-el integrals
 For citations please refer to: http://libint.valeyev.net

 Your ORCA version has been built with support for libXC version: 6.2.2
 For citations please refer to: https://libxc.gitlab.io

 This ORCA versions uses:
   CBLAS   interface :  Fast vector & matrix operations
   LAPACKE interface :  Fast linear algebra routines
   SCALAPACK package :  Parallel linear algebra routines
   Shared memory     :  Shared parallel matrices
   BLAS/LAPACK       :  OpenBLAS 0.3.27  USE64BITINT DYNAMIC_ARCH NO_AFFINITY SkylakeX SINGLE_THREADED
        Core in use  :  SkylakeX
   Copyright (c) 2011-2014, The OpenBLAS Project


NOTE: MaxCore=8000 MB was set to SCF,MP2,MDCI,CIPSI,MRCI and CIS
      => If you want to overwrite this, your respective input block should be placed after the MaxCore statement
Your calculation utilizes the atom-pairwise dispersion correction
with the Becke-Johnson damping scheme (D3BJ)


Your calculation utilizes the SMD solvation module
Please cite in your paper:
A.V. Marenich, C.J. Cramer, D.G. Truhlar J. Phys. Chem. B, 113, (2009), 6378 

Warning: RI is on but no J-basis has been assigned. Assigning Def2/J (nothing to worry about!)
================================================================================

----- Orbital basis set information -----
Your calculation utilizes the basis: def2-TZVP
   F. Weigend and R. Ahlrichs, Phys. Chem. Chem. Phys. 7, 3297 (2005).

----- AuxJ basis set information -----
Your calculation utilizes the auxiliary basis: def2/J
   F. Weigend, Phys. Chem. Chem. Phys. 8, 1057 (2006).

================================================================================
                                        WARNINGS
                       Please study these warnings very carefully!
================================================================================


WARNING: your system is open-shell and RHF/RKS was chosen
  ===> : WILL SWITCH to UHF/UKS


================================================================================
                                       INPUT FILE
================================================================================
NAME = rf_mecn_2H2O_freq_B3Y_con_02.inp
|  1> !B3LYP def2-TZVP freq d3 TightSCF SlowConv defgrid2
|  2>  
|  3> %pal
|  4> nprocs 20
|  5> end
|  6>  
|  7> %scf
|  8> MaxIter 1500
|  9> end
| 10>  
| 11> %maxcore 8000
| 12>  
| 13> !CPCM
| 14> %cpcm smd true
| 15> SMDsolvent "ACETONITRILE"
| 16> end
| 17>  
| 18> * xyz -1 2
| 19> 6        6.845931000     27.072283000      1.721327000
| 20> 6        6.193743000     25.692174000      2.059706000
| 21> 6        7.224981000     24.543488000      2.315502000
| 22> 6        6.618994000     23.295639000      3.057453000
| 23> 6        7.460810000     22.067522000      2.926121000
| 24> 6        7.077178000     20.725510000      2.369194000
| 25> 6        7.165041000     20.605719000      0.820822000
| 26> 6        6.777912000     19.180627000      0.270155000
| 27> 9        7.782661000     26.933590000      0.779819000
| 28> 9        7.397874000     27.614660000      2.806708000
| 29> 9        5.900530000     27.897835000      1.267684000
| 30> 9        5.420930000     25.866137000      3.150570000
| 31> 9        5.408859000     25.343182000      1.023029000
| 32> 9        7.706325000     24.141661000      1.120439000
| 33> 9        8.251804000     25.022477000      3.048167000
| 34> 9        6.496154000     23.636127000      4.374089000
| 35> 9        5.379749000     23.064533000      2.571757000
| 36> 9        8.747478000     22.239542000      3.190439000
| 37> 9        7.916296000     19.798850000      2.904823000
| 38> 9        5.810217000     20.419297000      2.749902000
| 39> 9        6.353292000     21.570762000      0.299829000
| 40> 9        8.442071000     20.941519000      0.474374000
| 41> 8        7.721085000     18.379522000      0.172522000
| 42> 8        5.573123000     19.027370000      0.012138000
| 43> 8        3.368498000     20.664541000      0.439614000
| 44> 1        3.696545000     21.476740000      0.842866000
| 45> 1        4.173300000     20.123324000      0.294144000
| 46> 1        9.422503000     18.506935000      0.739952000
| 47> 8       10.353748000     18.506222000      1.047447000
| 48> 1       10.461780000     19.360350000      1.482094000
| 49> *
| 50> 
| 51>                          ****END OF INPUT****
================================================================================

                       ****************************
                       * Single Point Calculation *
                       ****************************

---------------------------------
CARTESIAN COORDINATES (ANGSTROEM)
---------------------------------
  C      6.845931   27.072283    1.721327
  C      6.193743   25.692174    2.059706
  C      7.224981   24.543488    2.315502
  C      6.618994   23.295639    3.057453
  C      7.460810   22.067522    2.926121
  C      7.077178   20.725510    2.369194
  C      7.165041   20.605719    0.820822
  C      6.777912   19.180627    0.270155
  F      7.782661   26.933590    0.779819
  F      7.397874   27.614660    2.806708
  F      5.900530   27.897835    1.267684
  F      5.420930   25.866137    3.150570
  F      5.408859   25.343182    1.023029
  F      7.706325   24.141661    1.120439
  F      8.251804   25.022477    3.048167
  F      6.496154   23.636127    4.374089
  F      5.379749   23.064533    2.571757
  F      8.747478   22.239542    3.190439
  F      7.916296   19.798850    2.904823
  F      5.810217   20.419297    2.749902
  F      6.353292   21.570762    0.299829
  F      8.442071   20.941519    0.474374
  O      7.721085   18.379522    0.172522
  O      5.573123   19.027370    0.012138
  O      3.368498   20.664541    0.439614
  H      3.696545   21.476740    0.842866
  H      4.173300   20.123324    0.294144
  H      9.422503   18.506935    0.739952
  O     10.353748   18.506222    1.047447
  H     10.461780   19.360350    1.482094

----------------------------
CARTESIAN COORDINATES (A.U.)
----------------------------
  NO LB      ZA    FRAG     MASS         X           Y           Z
   0 C     6.0000    0    12.011   12.936935   51.159201    3.252837
   1 C     6.0000    0    12.011   11.704478   48.551173    3.892280
   2 C     6.0000    0    12.011   13.653235   46.380471    4.375665
   3 C     6.0000    0    12.011   12.508086   44.022378    5.777749
   4 C     6.0000    0    12.011   14.098888   41.701573    5.529567
   5 C     6.0000    0    12.011   13.373928   39.165538    4.477128
   6 C     6.0000    0    12.011   13.539965   38.939166    1.551129
   7 C     6.0000    0    12.011   12.808397   36.246132    0.510519
   8 F     9.0000    0    18.998   14.707098   50.897109    1.473644
   9 F     9.0000    0    18.998   13.979956   52.184145    5.303909
  10 F     9.0000    0    18.998   11.150386   52.719268    2.395576
  11 F     9.0000    0    18.998   10.244073   48.879915    5.953714
  12 F     9.0000    0    18.998   10.221262   47.891673    1.933245
  13 F     9.0000    0    18.998   14.562844   45.621128    2.117323
  14 F     9.0000    0    18.998   15.593650   47.285629    5.760201
  15 F     9.0000    0    18.998   12.275952   44.665807    8.265830
  16 F     9.0000    0    18.998   10.166252   43.585651    4.859916
  17 F     9.0000    0    18.998   16.530338   42.026644    6.029056
  18 F     9.0000    0    18.998   14.959631   37.414404    5.489320
  19 F     9.0000    0    18.998   10.979719   38.586879    5.196562
  20 F     9.0000    0    18.998   12.005982   40.762833    0.566595
  21 F     9.0000    0    18.998   15.953202   39.573736    0.896437
  22 O     8.0000    0    15.999   14.590736   34.732263    0.326019
  23 O     8.0000    0    15.999   10.531676   35.956518    0.022937
  24 O     8.0000    0    15.999    6.365539   39.050323    0.830750
  25 H     1.0000    0     1.008    6.985458   40.585157    1.592786
  26 H     1.0000    0     1.008    7.886394   38.027571    0.555852
  27 H     1.0000    0     1.008   17.805950   34.973039    1.398307
  28 O     8.0000    0    15.999   19.565748   34.971691    1.979388
  29 H     1.0000    0     1.008   19.769899   36.585759    2.800752

--------------------------------
INTERNAL COORDINATES (ANGSTROEM)
--------------------------------
 C      0   0   0     0.000000000000     0.00000000     0.00000000
 C      1   0   0     1.563505800074     0.00000000     0.00000000
 C      2   1   0     1.564724554948   114.10883534     0.00000000
 C      3   2   1     1.573161993366   113.92483836   162.85559796
 C      4   3   2     1.494715236347   113.16306592   162.26872046
 C      5   4   3     1.502776564529   128.50116751   237.45844945
 C      6   5   4     1.555482446328   115.04046325    83.44515445
 C      7   6   5     1.576067960462   113.80067355   179.11054478
 F      1   2   3     1.335341213029   110.70321273    48.32525844
 F      1   2   3     1.332991297998   110.83374506   287.22170666
 F      1   2   3     1.334582753880   108.91104978   167.84974452
 F      2   1   3     1.348142175304   107.47779284   122.12134280
 F      2   1   3     1.346305133263   107.77924829   239.24030324
 F      3   2   1     1.349567544895   107.99170672   283.57522947
 F      3   2   1     1.349293866315   109.25105428    41.24321733
 F      4   3   2     1.365486030774   106.95506131   283.42355337
 F      4   3   2     1.350939953394   108.63190950    39.60834423
 F      5   4   3     1.324752591146   115.01038962    48.75225170
 F      6   5   4     1.360042719610   107.75812776   203.62804633
 F      6   5   4     1.357901011913   109.61287449   321.10923177
 F      7   6   5     1.364433265828   106.97880436   302.20682491
 F      7   6   5     1.365134966809   106.64970595    55.97597032
 O      8   7   6     1.241320559583   115.11215621   270.02441118
 O      8   7   6     1.241602599409   114.99660641    89.37994503
 O     24   8   7     2.779107051634   131.68878472   353.59614041
 H     25  24   8     0.964310232920   106.89574481     1.58449008
 H     25  24   8     0.980705675110     2.66591616    18.20543326
 H     23   8   7     1.798063983342   130.42271684     8.39054350
 O     28  23   8     0.980699206393   175.89135041   157.94040676
 H     29  28  23     0.964429141004   104.30198180   201.53929394

---------------------------
INTERNAL COORDINATES (A.U.)
---------------------------
 C      0   0   0     0.000000000000     0.00000000     0.00000000
 C      1   0   0     2.954597770938     0.00000000     0.00000000
 C      2   1   0     2.956900883873   114.10883534     0.00000000
 C      3   2   1     2.972845331755   113.92483836   162.85559796
 C      4   3   2     2.824602444896   113.16306592   162.26872046
 C      5   4   3     2.839836147434   128.50116751   237.45844945
 C      6   5   4     2.939435829681   115.04046325    83.44515445
 C      7   6   5     2.978336813720   113.80067355   179.11054478
 F      1   2   3     2.523429187962   110.70321273    48.32525844
 F      1   2   3     2.518988492117   110.83374506   287.22170666
 F      1   2   3     2.521995907888   108.91104978   167.84974452
 F      2   1   3     2.547619500914   107.47779284   122.12134280
 F      2   1   3     2.544147994559   107.77924829   239.24030324
 F      3   2   1     2.550313059080   107.99170672   283.57522947
 F      3   2   1     2.549795881515   109.25105428    41.24321733
 F      4   3   2     2.580394637859   106.95506131   283.42355337
 F      4   3   2     2.552906535288   108.63190950    39.60834423
 F      5   4   3     2.503419592468   115.01038962    48.75225170
 F      6   5   4     2.570108270497   107.75812776   203.62804633
 F      6   5   4     2.566061029490   109.61287449   321.10923177
 F      7   6   5     2.578405200427   106.97880436   302.20682491
 F      7   6   5     2.579731223108   106.64970595    55.97597032
 O      8   7   6     2.345755902017   115.11215621   270.02441118
 O      8   7   6     2.346288880048   114.99660641    89.37994503
 O     24   8   7     5.251751224438   131.68878472   353.59614041
 H     25  24   8     1.822282248356   106.89574481     1.58449008
 H     25  24   8     1.853265143940     2.66591616    18.20543326
 H     23   8   7     3.397848499785   130.42271684     8.39054350
 O     28  23   8     1.853252919836   175.89135041   157.94040676
 H     29  28  23     1.822506952070   104.30198180   201.53929394

---------------------
BASIS SET INFORMATION
---------------------
There are 4 groups of distinct atoms

 Group   1 Type C   : 11s6p2d1f contracted to 5s3p2d1f pattern {62111/411/11/1}
 Group   2 Type F   : 11s6p2d1f contracted to 5s3p2d1f pattern {62111/411/11/1}
 Group   3 Type O   : 11s6p2d1f contracted to 5s3p2d1f pattern {62111/411/11/1}
 Group   4 Type H   : 5s1p contracted to 3s1p pattern {311/1}

Atom   0C    basis set group =>   1
Atom   1C    basis set group =>   1
Atom   2C    basis set group =>   1
Atom   3C    basis set group =>   1
Atom   4C    basis set group =>   1
Atom   5C    basis set group =>   1
Atom   6C    basis set group =>   1
Atom   7C    basis set group =>   1
Atom   8F    basis set group =>   2
Atom   9F    basis set group =>   2
Atom  10F    basis set group =>   2
Atom  11F    basis set group =>   2
Atom  12F    basis set group =>   2
Atom  13F    basis set group =>   2
Atom  14F    basis set group =>   2
Atom  15F    basis set group =>   2
Atom  16F    basis set group =>   2
Atom  17F    basis set group =>   2
Atom  18F    basis set group =>   2
Atom  19F    basis set group =>   2
Atom  20F    basis set group =>   2
Atom  21F    basis set group =>   2
Atom  22O    basis set group =>   3
Atom  23O    basis set group =>   3
Atom  24O    basis set group =>   3
Atom  25H    basis set group =>   4
Atom  26H    basis set group =>   4
Atom  27H    basis set group =>   4
Atom  28O    basis set group =>   3
Atom  29H    basis set group =>   4
---------------------------------
AUXILIARY/J BASIS SET INFORMATION
---------------------------------
There are 4 groups of distinct atoms

 Group   1 Type C   : 12s5p4d2f1g contracted to 6s4p3d1f1g pattern {711111/2111/211/2/1}
 Group   2 Type F   : 12s5p4d2f1g contracted to 6s4p3d1f1g pattern {711111/2111/211/2/1}
 Group   3 Type O   : 12s5p4d2f1g contracted to 6s4p3d1f1g pattern {711111/2111/211/2/1}
 Group   4 Type H   : 5s2p1d contracted to 3s1p1d pattern {311/2/1}

Atom   0C    basis set group =>   1
Atom   1C    basis set group =>   1
Atom   2C    basis set group =>   1
Atom   3C    basis set group =>   1
Atom   4C    basis set group =>   1
Atom   5C    basis set group =>   1
Atom   6C    basis set group =>   1
Atom   7C    basis set group =>   1
Atom   8F    basis set group =>   2
Atom   9F    basis set group =>   2
Atom  10F    basis set group =>   2
Atom  11F    basis set group =>   2
Atom  12F    basis set group =>   2
Atom  13F    basis set group =>   2
Atom  14F    basis set group =>   2
Atom  15F    basis set group =>   2
Atom  16F    basis set group =>   2
Atom  17F    basis set group =>   2
Atom  18F    basis set group =>   2
Atom  19F    basis set group =>   2
Atom  20F    basis set group =>   2
Atom  21F    basis set group =>   2
Atom  22O    basis set group =>   3
Atom  23O    basis set group =>   3
Atom  24O    basis set group =>   3
Atom  25H    basis set group =>   4
Atom  26H    basis set group =>   4
Atom  27H    basis set group =>   4
Atom  28O    basis set group =>   3
Atom  29H    basis set group =>   4


           ************************************************************
           *        Program running with 20 parallel MPI-processes    *
           *              working on a common directory               *
           ************************************************************
------------------------------------------------------------------------------
                             ORCA STARTUP CALCULATIONS
                           -- RI-GTO INTEGRALS CHOSEN --
------------------------------------------------------------------------------
------------------------------------------------------------------------------
                   ___                                                        
                  /   \      - P O W E R E D   B Y -                         
                 /     \                                                     
                 |  |  |   _    _      __       _____    __    __             
                 |  |  |  | |  | |    /  \     |  _  \  |  |  /  |          
                  \  \/   | |  | |   /    \    | | | |  |  | /  /          
                 / \  \   | |__| |  /  /\  \   | |_| |  |  |/  /          
                |  |  |   |  __  | /  /__\  \  |    /   |      \           
                |  |  |   | |  | | |   __   |  |    \   |  |\   \          
                \     /   | |  | | |  |  |  |  | |\  \  |  | \   \       
                 \___/    |_|  |_| |__|  |__|  |_| \__\ |__|  \__/        
                                                                              
                      - O R C A' S   B I G   F R I E N D -                    
                                      &                                       
                       - I N T E G R A L  F E E D E R -                       
                                                                              
 v1 FN, 2020, v2 2021, v3 2022-2024                                           
------------------------------------------------------------------------------


----------------------
SHARK INTEGRAL PACKAGE
----------------------

Number of atoms                             ...     30
Number of basis functions                   ...    830
Number of shells                            ...    302
Maximum angular momentum                    ...      3
Integral batch strategy                     ... SHARK/LIBINT Hybrid
RI-J (if used) integral strategy            ... SPLIT-RIJ (Revised 2003 algorithm where possible)
Printlevel                                  ...      1
Contraction scheme used                     ... SEGMENTED contraction
Prescreening option                         ... SCHWARTZ
   Thresh                                   ... 2.500e-11
   Tcut                                     ... 2.500e-12
   Tpresel                                  ... 2.500e-12 
Coulomb Range Separation                    ... NOT USED
Exchange Range Separation                   ... NOT USED
Multipole approximations                    ... NOT USED
Finite Nucleus Model                        ... NOT USED
CABS basis                                  ... NOT available
Auxiliary Coulomb fitting basis             ... AVAILABLE
   # of basis functions in Aux-J            ...   1318
   # of shells in Aux-J                     ...    410
   Maximum angular momentum in Aux-J        ...      4
Auxiliary J/K fitting basis                 ... NOT available
Auxiliary Correlation fitting basis         ... NOT available
Auxiliary 'external' fitting basis          ... NOT available

Checking pre-screening integrals            ... done (  0.0 sec) Dimension = 302
Check shell pair data                       ... done (  0.0 sec)
Shell pair information
Shell pair cut-off parameter TPreSel        ...   2.5e-12
Total number of shell pairs                 ...     45753
Shell pairs after pre-screening             ...     27766
Total number of primitive shell pairs       ...    148824
Primitive shell pairs kept                  ...     57311
          la=0 lb=0:   5680 shell pairs
          la=1 lb=0:   7765 shell pairs
          la=1 lb=1:   2590 shell pairs
          la=2 lb=0:   4059 shell pairs
          la=2 lb=1:   2827 shell pairs
          la=2 lb=2:    761 shell pairs
          la=3 lb=0:   1851 shell pairs
          la=3 lb=1:   1372 shell pairs
          la=3 lb=2:    690 shell pairs
          la=3 lb=3:    171 shell pairs

Calculating one electron integrals          ... done (  0.0 sec)
Calculating RI/J V-Matrix + Cholesky decomp.... done (  0.1 sec)
Calculating Nuclear repulsion               ... done (  0.0 sec) ENN=   3083.869738309491 Eh

Diagonalization of the overlap matrix:
Smallest eigenvalue                        ... 6.515e-05
Time for diagonalization                   ...    0.129 sec
Threshold for overlap eigenvalues          ... 1.000e-07
Number of eigenvalues below threshold      ... 0
Time for construction of square roots      ...    0.062 sec
Total time needed                          ...    0.199 sec

-------------------
DFT GRID GENERATION
-------------------

General Integration Accuracy     IntAcc      ... 4.388
Radial Grid Type                 RadialGrid  ... OptM3 with GC (2021)
Angular Grid (max. ang.)         AngularGrid ... 4 (Lebedev-302)
Angular grid pruning method      GridPruning ... 4 (adaptive)
Weight generation scheme         WeightScheme... mBecke (2022)
Basis function cutoff            BFCut       ... 1.0000e-11
Integration weight cutoff        WCut        ... 1.0000e-14
Partially contracted basis set               ... off
Rotationally invariant grid construction     ... off
Angular grids for H and He will be reduced by one unit

Total number of grid points                  ...   170417
Total number of batches                      ...     2678
Average number of points per batch           ...       63
Average number of grid points per atom       ...     5681

--------------------
COSX GRID GENERATION
--------------------

GRIDX 1
-------
General Integration Accuracy     IntAcc      ... 3.816
Radial Grid Type                 RadialGrid  ... OptM3 with GC (2021)
Angular Grid (max. ang.)         AngularGrid ... 1 (Lebedev-50)
Angular grid pruning method      GridPruning ... 4 (adaptive)
Weight generation scheme         WeightScheme... mBecke (2022)
Basis function cutoff            BFCut       ... 1.0000e-11
Integration weight cutoff        WCut        ... 1.0000e-14
Partially contracted basis set               ... on
Rotationally invariant grid construction     ... off
Angular grids for H and He will be reduced by one unit

Total number of grid points                  ...    21459
Total number of batches                      ...      181
Average number of points per batch           ...      118
Average number of grid points per atom       ...      715
UseSFitting                                  ... on

GRIDX 2
-------
General Integration Accuracy     IntAcc      ... 4.020
Radial Grid Type                 RadialGrid  ... OptM3 with GC (2021)
Angular Grid (max. ang.)         AngularGrid ... 2 (Lebedev-110)
Angular grid pruning method      GridPruning ... 4 (adaptive)
Weight generation scheme         WeightScheme... mBecke (2022)
Basis function cutoff            BFCut       ... 1.0000e-11
Integration weight cutoff        WCut        ... 1.0000e-14
Partially contracted basis set               ... on
Rotationally invariant grid construction     ... off
Angular grids for H and He will be reduced by one unit

Total number of grid points                  ...    49669
Total number of batches                      ...      401
Average number of points per batch           ...      123
Average number of grid points per atom       ...     1656
UseSFitting                                  ... on

GRIDX 3
-------
General Integration Accuracy     IntAcc      ... 4.338
Radial Grid Type                 RadialGrid  ... OptM3 with GC (2021)
Angular Grid (max. ang.)         AngularGrid ... 3 (Lebedev-194)
Angular grid pruning method      GridPruning ... 4 (adaptive)
Weight generation scheme         WeightScheme... mBecke (2022)
Basis function cutoff            BFCut       ... 1.0000e-11
Integration weight cutoff        WCut        ... 1.0000e-14
Partially contracted basis set               ... on
Rotationally invariant grid construction     ... off
Angular grids for H and He will be reduced by one unit

Total number of grid points                  ...   109709
Total number of batches                      ...      871
Average number of points per batch           ...      125
Average number of grid points per atom       ...     3657
UseSFitting                                  ... on
Initializing property integral containers    ... done (  0.0 sec)

SHARK setup successfully completed in   3.3 seconds

Maximum memory used throughout the entire STARTUP-calculation: 68.0 MB


           ************************************************************
           *        Program running with 20 parallel MPI-processes    *
           *              working on a common directory               *
           ************************************************************
-------------------------------------------------------------------------------
                                 ORCA GUESS
                   Start orbitals & Density for SCF / CASSCF
-------------------------------------------------------------------------------

------------
SCF SETTINGS
------------
Hamiltonian:
 Density Functional     Method          .... DFT(GTOs)
 Exchange Functional    Exchange        .... B88
   X-Alpha parameter    XAlpha          ....  0.666667
   Becke's b parameter  XBeta           ....  0.004200
 Correlation Functional Correlation     .... LYP
 LDA part of GGA corr.  LDAOpt          .... VWN-5
 Gradients option       PostSCFGGA      .... off
 Hybrid DFT is turned on
   Fraction HF Exchange ScalHFX         ....  0.200000
   Scaling of DF-GGA-X  ScalDFX         ....  0.720000
   Scaling of DF-GGA-C  ScalDFC         ....  0.810000
   Scaling of DF-LDA-C  ScalLDAC        ....  1.000000
   Perturbative correction              ....  0.000000
   NL short-range parameter             ....  4.800000
 RI-approximation to the Coulomb term is turned on
   Number of AuxJ basis functions       .... 1318
   RIJ-COSX (HFX calculated with COS-X)).... on


General Settings:
 Integral files         IntName         .... rf_mecn_2H2O_freq_B3Y_con_02
 Hartree-Fock type      HFTyp           .... UHF
 Total Charge           Charge          ....   -1
 Multiplicity           Mult            ....    2
 Number of Electrons    NEL             ....  211
 Basis Dimension        Dim             ....  830
 Nuclear Repulsion      ENuc            ....   3083.8697383095 Eh

Convergence Acceleration:
 AO-DIIS                CNVDIIS         .... on
   Start iteration      DIISMaxIt       ....     0
   Startup error        DIISStart       ....  0.200000
   # of expansion vecs  DIISMaxEq       ....     5
   Bias factor          DIISBfac        ....   1.050
   Max. coefficient     DIISMaxC        ....  10.000
 MO-DIIS                CNVKDIIS        .... off
 Trust-Rad. Augm. Hess. CNVTRAH         .... auto
   Auto Start mean grad. ratio tolernc. ....  1.125000
   Auto Start start iteration           ....    50
   Auto Start num. interpolation iter.  ....    10
   Max. Number of Micro iterations      ....    24
   Max. Number of Macro iterations      .... Maxiter - #DIIS iter
   Number of Davidson start vectors     ....     2
   Converg. threshold    (grad. norm)   ....   1.000e-05
   Grad. Scal. Fac. for Micro threshold ....   0.100
   Minimum threshold for Micro iter.    ....   1.000e-02
   NR start threshold (gradient norm)   ....   1.000e-04
   Initial trust radius                 ....   0.400
   Minimum AH scaling param. (alpha)    ....   1.000
   Maximum AH scaling param. (alpha)    .... 1000.000
   Quad. conv. algorithm                .... NR
   White noise on init. David. guess    .... on
   Maximum white noise                  ....   0.010
   Pseudo random numbers                .... off
   Inactive MOs                         .... canonical
   Orbital update algorithm             .... Taylor
   Preconditioner                       .... Diag
   Full preconditioner red. dimension   ....   250
 SOSCF                  CNVSOSCF        .... on
   Start iteration      SOSCFMaxIt      ....   150
   Startup grad/error   SOSCFStart      ....  0.001000
   Hessian update       SOSCFHessUp     .... L-BFGS
 Level Shifting         CNVShift        .... on
   Level shift para.    LevelShift      ....    0.2500
   Turn off err/grad.   ShiftErr        ....    0.0000
 Zerner damping         CNVZerner       .... off
 Static damping         CNVDamp         .... on
   Fraction old density DampFac         ....    0.8500
   Max. Damping (<1)    DampMax         ....    0.9800
   Min. Damping (>=0)   DampMin         ....    0.0000
   Turn off err/grad.   DampErr         ....    0.0300

SCF Procedure:
 Maximum # iterations   MaxIter         ....  1500
 SCF integral mode      SCFMode         .... Direct
   Integral package                     .... SHARK and LIBINT hybrid scheme
 Reset frequency        DirectResetFreq ....    20
 Integral Threshold     Thresh          ....  2.500e-11 Eh
 Primitive CutOff       TCut            ....  2.500e-12 Eh

Convergence Tolerance:
 Convergence Check Mode ConvCheckMode   .... Total+1el-Energy
 Convergence forced     ConvForced      .... 0
 Energy Change          TolE            ....  1.000e-08 Eh
 1-El. energy change                    ....  1.000e-05 Eh
 Orbital Gradient       TolG            ....  1.000e-05
 Orbital Rotation angle TolX            ....  1.000e-05
 DIIS Error             TolErr          ....  5.000e-07

------------------------------
INITIAL GUESS: MODEL POTENTIAL
------------------------------
Loading Hartree-Fock densities                     ... done
Calculating cut-offs                               ... done
Initializing the effective Hamiltonian             ... done
Setting up the integral package (SHARK)            ... done
Starting the Coulomb interaction                   ... done (   0.2 sec)
Making the grid                                    ... done (   0.4 sec)
Mapping shells                                     ... done
Starting the XC term evaluation                    ... done (   0.1 sec)
  promolecular density results
     # of electrons  =    210.002227594
     EX              =   -215.845600621
     EC              =     -7.833689365
     EX+EC           =   -223.679289986
Transforming the Hamiltonian                       ... done (   0.1 sec)
Diagonalizing the Hamiltonian                      ... done (   0.1 sec)
Back transforming the eigenvectors                 ... done (   0.0 sec)
Now organizing SCF variables                       ... done
                      ------------------
                      INITIAL GUESS DONE (   1.2 sec)
                      ------------------
             **** ENERGY FILE WAS UPDATED (rf_mecn_2H2O_freq_B3Y_con_02.en.tmp) ****
Finished Guess after   1.9 sec
Maximum memory used throughout the entire GUESS-calculation: 57.3 MB


           ************************************************************
           *        Program running with 20 parallel MPI-processes    *
           *              working on a common directory               *
           ************************************************************

-------------------------------------------------------------------------------------------
                                      ORCA LEAN-SCF
                              memory conserving SCF solver
-------------------------------------------------------------------------------------------

--------------------
CPCM SOLVATION MODEL
--------------------
CPCM parameters:
  Epsilon                                         ...      35.6880
  Refrac                                          ...       1.3442
  Rsolv                                           ...       1.3000
  Surface type                                    ... GAUSSIAN VDW
  Discretization scheme                           ... Constant charge density
    Threshold for H atoms                         ...       5.0000 (charges/Ang^2)
    Threshold for non-H atoms                     ...       5.0000 (charges/Ang^2)
  Epsilon function type                           ...         CPCM
Solvent:                                          ... ACETONITRILE
SMD-CDS solvent descriptors:
  Soln                                            ...       1.3442
  Soln25                                          ...       1.3416
  Sola                                            ...       0.0700
  Solb                                            ...       0.3200
  Solg                                            ...      41.2500
  Solc                                            ...       0.0000
  Solh                                            ...       0.0000
Radii:
  Scheme                                          ... Element-dependent radii
  Radius for C  used is    3.4960 Bohr (=   1.8500 Ang.)
  Radius for F  used is    3.2692 Bohr (=   1.7300 Ang.)
  Radius for O  used is    4.0969 Bohr (=   2.1680 Ang.)
  Radius for H  used is    2.2677 Bohr (=   1.2000 Ang.)
Calculating surface                               ...        done! (  0.0s)
Cavity surface points                             ...         2597
Cavity Volume                                     ...    2547.9153
Cavity Surface-area                               ...    1307.5842
Calculating surface distance matrix               ...        done! (  0.1s)
Performing Cholesky decomposition & store         ...        done! (  0.1s)
Overall time for CPCM initialization              ...                 0.2s

----------------------------------------D-I-I-S--------------------------------------------
Iteration    Energy (Eh)           Delta-E    RMSDP     MaxDP     DIISErr   Damp  Time(sec)
-------------------------------------------------------------------------------------------
               ***  Starting incremental Fock matrix formation  ***
    1    -2005.4111092511730021     0.00e+00  2.50e-04  2.73e-02  1.75e-01  0.850   7.8
Warning: op=0 Small HOMO/LUMO gap (   0.087) - skipping pre-diagonalization
         Will do a full diagonalization
    2    -2005.6316666917773546    -2.21e-01  2.96e-04  5.44e-02  1.23e-01  0.850   5.2
                               ***Turning on AO-DIIS***
    3    -2005.7534850867741625    -1.22e-01  1.49e-04  3.00e-02  7.65e-02  0.850   4.5
    4    -2005.8270900219704345    -7.36e-02  8.16e-05  1.44e-02  5.77e-02  0.850   4.2
    5    -2005.8794975514865655    -5.24e-02  5.18e-05  6.10e-03  4.72e-02  0.850   4.3
    6    -2005.9208651628705411    -4.14e-02  3.91e-05  2.71e-03  4.00e-02  0.850   4.2
    7    -2005.9550497092332080    -3.42e-02  3.38e-05  2.78e-03  3.42e-02  0.850   4.2
    8    -2005.9837184604175491    -2.87e-02  2.98e-05  2.57e-03  2.90e-02  0.850   4.0
    9    -2006.0075969172012265    -2.39e-02  1.71e-04  1.48e-02  2.42e-02  0.000   3.9
   10    -2006.1325804223633895    -1.25e-01  1.46e-05  2.00e-03  3.47e-03  0.000   4.4
                              *** Initializing SOSCF ***
---------------------------------------S-O-S-C-F--------------------------------------
Iteration    Energy (Eh)           Delta-E    RMSDP     MaxDP     MaxGrad    Time(sec)
--------------------------------------------------------------------------------------
   11    -2006.1327605904980373    -1.80e-04  6.76e-06  1.22e-03  6.22e-04     4.6
               *** Restarting incremental Fock matrix formation ***
   12    -2006.1327581076138813     2.48e-06  7.64e-06  7.60e-04  7.53e-04     7.5
   13    -2006.1327618918530789    -3.78e-06  4.33e-06  3.39e-04  2.68e-04     5.2
   14    -2006.1327679886890110    -6.10e-06  1.66e-06  1.45e-04  1.16e-04     5.0
   15    -2006.1327681380807917    -1.49e-07  6.37e-07  5.44e-05  6.20e-05     4.5
   16    -2006.1327681990605925    -6.10e-08  4.44e-07  3.66e-05  2.67e-05     4.0
   17    -2006.1327682373948846    -3.83e-08  2.50e-07  3.04e-05  2.31e-05     3.9
   18    -2006.1327682465907856    -9.20e-09  1.75e-07  1.55e-05  1.67e-05     3.5
                 **** Energy Check signals convergence ****

               *****************************************************
               *                     SUCCESS                       *
               *           SCF CONVERGED AFTER  18 CYCLES          *
               *****************************************************

Recomputing exchange energy using gridx3       ... done (    9.486 sec)
Old exchange energy                            :    -43.374407196 Eh
New exchange energy                            :    -43.374418829 Eh
Exchange energy change after final integration :     -0.000011633 Eh
Total energy after final integration           :  -2006.132779879 Eh

SMD CDS free energy correction energy :                 2.58787     Kcal/mol
Total Energy after SMD CDS correction =             -2006.128655851 Eh
             **** ENERGY FILE WAS UPDATED (rf_mecn_2H2O_freq_B3Y_con_02.en.tmp) ****

----------------
TOTAL SCF ENERGY
----------------

Total Energy       :      -2006.12865585098552 Eh          -54589.53600 eV

Components:
Nuclear Repulsion  :       3083.86973830949137 Eh           83916.36180 eV
Electronic Energy  :      -5089.92226422916065 Eh         -138503.82621 eV
One Electron Energy:      -8950.97258668998074 Eh         -243568.34686 eV
Two Electron Energy:       3861.05032246082010 Eh          105064.52065 eV
CPCM Dielectric    :         -0.08024232692131 Eh              -2.18350 eV
SMD CDS (Gcds)     :          0.00412402829532 Eh               0.11222 eV

Virial components:
Potential Energy   :      -4005.41913655167400 Eh         -108992.99580 eV
Kinetic Energy     :       1999.29048070068848 Eh           54403.45980 eV
Virial Ratio       :          2.00342030095992

DFT components:
N(Alpha)           :      105.999844988167 electrons
N(Beta)            :      104.999845103145 electrons
N(Total)           :      210.999690091312 electrons
E(X)               :     -172.857984981578 Eh       
E(C)               :       -9.196910863691 Eh       
E(XC)              :     -182.054895845269 Eh       

CPCM Solvation Model Properties:
Surface-charge          :          0.99010660969230
Corrected charge        :          1.00000000000000
Outlying charge corr.   :          0.00000503656946 Eh               0.00014 eV
Free-energy (cav+disp)  :          0.00412402829532 Eh               0.11222 eV

---------------
SCF CONVERGENCE
---------------

  Last Energy change         ...    9.1959e-09  Tolerance :   1.0000e-08
  Last MAX-Density change    ...    1.5463e-05  Tolerance :   1.0000e-07
  Last RMS-Density change    ...    1.7548e-07  Tolerance :   5.0000e-09
  Last DIIS Error            ...    6.2164e-04  Tolerance :   5.0000e-07
  Last Orbital Gradient      ...    1.6658e-05  Tolerance :   1.0000e-05
  Last Orbital Rotation      ...    9.5289e-05  Tolerance :   1.0000e-05


----------------------
UHF SPIN CONTAMINATION
----------------------

Warning: in a DFT calculation there is little theoretical justification to 
         calculate <S**2> as in Hartree-Fock theory. We will do it anyways
         but you should keep in mind that the values have only limited relevance

Expectation value of <S**2>     :     0.754128
Ideal value S*(S+1) for S=0.5   :     0.750000
Deviation                       :     0.004128

----------------
ORBITAL ENERGIES
----------------
                 SPIN UP ORBITALS
  NO   OCC          E(Eh)            E(eV) 
   0   1.0000     -24.751085      -673.5113 
   1   1.0000     -24.744332      -673.3275 
   2   1.0000     -24.743264      -673.2984 
   3   1.0000     -24.742678      -673.2825 
   4   1.0000     -24.742165      -673.2685 
   5   1.0000     -24.741672      -673.2551 
   6   1.0000     -24.740947      -673.2354 
   7   1.0000     -24.740942      -673.2353 
   8   1.0000     -24.737316      -673.1366 
   9   1.0000     -24.728394      -672.8938 
  10   1.0000     -24.721668      -672.7108 
  11   1.0000     -24.721308      -672.7010 
  12   1.0000     -24.707676      -672.3300 
  13   1.0000     -24.707270      -672.3190 
  14   1.0000     -19.088144      -519.4148 
  15   1.0000     -19.088052      -519.4123 
  16   1.0000     -19.083656      -519.2927 
  17   1.0000     -19.083549      -519.2898 
  18   1.0000     -10.460369      -284.6411 
  19   1.0000     -10.405830      -283.1570 
  20   1.0000     -10.404170      -283.1118 
  21   1.0000     -10.402475      -283.0657 
  22   1.0000     -10.385288      -282.5980 
  23   1.0000     -10.353271      -281.7268 
  24   1.0000     -10.319618      -280.8111 
  25   1.0000     -10.275570      -279.6125 
  26   1.0000      -1.352877       -36.8136 
  27   1.0000      -1.324085       -36.0302 
  28   1.0000      -1.307726       -35.5850 
  29   1.0000      -1.302557       -35.4444 
  30   1.0000      -1.296508       -35.2798 
  31   1.0000      -1.285873       -34.9904 
  32   1.0000      -1.271268       -34.5930 
  33   1.0000      -1.265435       -34.4342 
  34   1.0000      -1.259982       -34.2858 
  35   1.0000      -1.256410       -34.1886 
  36   1.0000      -1.249073       -33.9890 
  37   1.0000      -1.241437       -33.7812 
  38   1.0000      -1.233235       -33.5580 
  39   1.0000      -1.214337       -33.0438 
  40   1.0000      -1.047737       -28.5104 
  41   1.0000      -0.975425       -26.5427 
  42   1.0000      -0.972174       -26.4542 
  43   1.0000      -0.960887       -26.1471 
  44   1.0000      -0.852550       -23.1991 
  45   1.0000      -0.831337       -22.6218 
  46   1.0000      -0.795318       -21.6417 
  47   1.0000      -0.758187       -20.6313 
  48   1.0000      -0.719078       -19.5671 
  49   1.0000      -0.691054       -18.8045 
  50   1.0000      -0.664628       -18.0855 
  51   1.0000      -0.646744       -17.5988 
  52   1.0000      -0.644042       -17.5253 
  53   1.0000      -0.636704       -17.3256 
  54   1.0000      -0.623153       -16.9569 
  55   1.0000      -0.620724       -16.8908 
  56   1.0000      -0.617908       -16.8141 
  57   1.0000      -0.610769       -16.6199 
  58   1.0000      -0.603531       -16.4229 
  59   1.0000      -0.599214       -16.3054 
  60   1.0000      -0.592836       -16.1319 
  61   1.0000      -0.582323       -15.8458 
  62   1.0000      -0.580538       -15.7973 
  63   1.0000      -0.571852       -15.5609 
  64   1.0000      -0.555646       -15.1199 
  65   1.0000      -0.530313       -14.4305 
  66   1.0000      -0.514710       -14.0060 
  67   1.0000      -0.514313       -13.9952 
  68   1.0000      -0.509239       -13.8571 
  69   1.0000      -0.503521       -13.7015 
  70   1.0000      -0.498937       -13.5768 
  71   1.0000      -0.498183       -13.5562 
  72   1.0000      -0.496936       -13.5223 
  73   1.0000      -0.488823       -13.3016 
  74   1.0000      -0.483046       -13.1444 
  75   1.0000      -0.481502       -13.1023 
  76   1.0000      -0.477585       -12.9958 
  77   1.0000      -0.474267       -12.9055 
  78   1.0000      -0.468306       -12.7432 
  79   1.0000      -0.464402       -12.6370 
  80   1.0000      -0.463033       -12.5998 
  81   1.0000      -0.459670       -12.5083 
  82   1.0000      -0.459229       -12.4963 
  83   1.0000      -0.452217       -12.3054 
  84   1.0000      -0.450057       -12.2467 
  85   1.0000      -0.447211       -12.1692 
  86   1.0000      -0.442961       -12.0536 
  87   1.0000      -0.441614       -12.0169 
  88   1.0000      -0.440034       -11.9739 
  89   1.0000      -0.437930       -11.9167 
  90   1.0000      -0.433856       -11.8058 
  91   1.0000      -0.424323       -11.5464 
  92   1.0000      -0.421535       -11.4705 
  93   1.0000      -0.419910       -11.4263 
  94   1.0000      -0.408453       -11.1146 
  95   1.0000      -0.405076       -11.0227 
  96   1.0000      -0.378974       -10.3124 
  97   1.0000      -0.360269        -9.8034 
  98   1.0000      -0.359539        -9.7836 
  99   1.0000      -0.353991        -9.6326 
 100   1.0000      -0.286926        -7.8077 
 101   1.0000      -0.284792        -7.7496 
 102   1.0000      -0.275074        -7.4851 
 103   1.0000      -0.269957        -7.3459 
 104   1.0000      -0.259429        -7.0594 
 105   1.0000      -0.252595        -6.8735 
 106   0.0000      -0.005399        -0.1469 
 107   0.0000       0.015418         0.4195 
 108   0.0000       0.021536         0.5860 
 109   0.0000       0.040681         1.1070 
 110   0.0000       0.057850         1.5742 
 111   0.0000       0.073475         1.9994 
 112   0.0000       0.081520         2.2183 
 113   0.0000       0.093219         2.5366 
 114   0.0000       0.103776         2.8239 
 115   0.0000       0.106510         2.8983 
 116   0.0000       0.116977         3.1831 

                 SPIN DOWN ORBITALS
  NO   OCC          E(Eh)            E(eV) 
   0   1.0000     -24.746697      -673.3918 
   1   1.0000     -24.744333      -673.3275 
   2   1.0000     -24.743261      -673.2984 
   3   1.0000     -24.742660      -673.2820 
   4   1.0000     -24.742164      -673.2685 
   5   1.0000     -24.741568      -673.2523 
   6   1.0000     -24.740935      -673.2351 
   7   1.0000     -24.740889      -673.2338 
   8   1.0000     -24.737187      -673.1331 
   9   1.0000     -24.727082      -672.8581 
  10   1.0000     -24.721184      -672.6976 
  11   1.0000     -24.720927      -672.6906 
  12   1.0000     -24.707650      -672.3293 
  13   1.0000     -24.707252      -672.3185 
  14   1.0000     -19.088143      -519.4148 
  15   1.0000     -19.088051      -519.4123 
  16   1.0000     -19.083492      -519.2882 
  17   1.0000     -19.083400      -519.2857 
  18   1.0000     -10.460340      -284.6403 
  19   1.0000     -10.405771      -283.1554 
  20   1.0000     -10.403685      -283.0987 
  21   1.0000     -10.403252      -283.0869 
  22   1.0000     -10.386165      -282.6219 
  23   1.0000     -10.352519      -281.7064 
  24   1.0000     -10.305252      -280.4202 
  25   1.0000     -10.275485      -279.6102 
  26   1.0000      -1.352847       -36.8128 
  27   1.0000      -1.323510       -36.0145 
  28   1.0000      -1.307106       -35.5682 
  29   1.0000      -1.300765       -35.3956 
  30   1.0000      -1.294499       -35.2251 
  31   1.0000      -1.278894       -34.8005 
  32   1.0000      -1.270846       -34.5815 
  33   1.0000      -1.265381       -34.4328 
  34   1.0000      -1.259956       -34.2851 
  35   1.0000      -1.256173       -34.1822 
  36   1.0000      -1.248933       -33.9852 
  37   1.0000      -1.239605       -33.7314 
  38   1.0000      -1.232202       -33.5299 
  39   1.0000      -1.214194       -33.0399 
  40   1.0000      -1.047414       -28.5016 
  41   1.0000      -0.975348       -26.5406 
  42   1.0000      -0.972170       -26.4541 
  43   1.0000      -0.960599       -26.1392 
  44   1.0000      -0.844430       -22.9781 
  45   1.0000      -0.823217       -22.4009 
  46   1.0000      -0.793659       -21.5966 
  47   1.0000      -0.752084       -20.4653 
  48   1.0000      -0.715540       -19.4708 
  49   1.0000      -0.690191       -18.7810 
  50   1.0000      -0.660788       -17.9810 
  51   1.0000      -0.645174       -17.5561 
  52   1.0000      -0.643152       -17.5011 
  53   1.0000      -0.636571       -17.3220 
  54   1.0000      -0.621850       -16.9214 
  55   1.0000      -0.619394       -16.8546 
  56   1.0000      -0.612514       -16.6673 
  57   1.0000      -0.609295       -16.5798 
  58   1.0000      -0.602251       -16.3881 
  59   1.0000      -0.597028       -16.2460 
  60   1.0000      -0.591915       -16.1068 
  61   1.0000      -0.580728       -15.8024 
  62   1.0000      -0.578964       -15.7544 
  63   1.0000      -0.569787       -15.5047 
  64   1.0000      -0.554976       -15.1017 
  65   1.0000      -0.514859       -14.0100 
  66   1.0000      -0.514421       -13.9981 
  67   1.0000      -0.511401       -13.9159 
  68   1.0000      -0.505121       -13.7451 
  69   1.0000      -0.500106       -13.6086 
  70   1.0000      -0.498167       -13.5558 
  71   1.0000      -0.496992       -13.5238 
  72   1.0000      -0.494637       -13.4598 
  73   1.0000      -0.487291       -13.2598 
  74   1.0000      -0.481859       -13.1121 
  75   1.0000      -0.480197       -13.0668 
  76   1.0000      -0.476855       -12.9759 
  77   1.0000      -0.473761       -12.8917 
  78   1.0000      -0.467557       -12.7229 
  79   1.0000      -0.463382       -12.6093 
  80   1.0000      -0.462661       -12.5896 
  81   1.0000      -0.458498       -12.4764 
  82   1.0000      -0.454894       -12.3783 
  83   1.0000      -0.451878       -12.2962 
  84   1.0000      -0.449639       -12.2353 
  85   1.0000      -0.446849       -12.1594 
  86   1.0000      -0.442452       -12.0397 
  87   1.0000      -0.441162       -12.0046 
  88   1.0000      -0.439344       -11.9552 
  89   1.0000      -0.437040       -11.8925 
  90   1.0000      -0.433024       -11.7832 
  91   1.0000      -0.423149       -11.5145 
  92   1.0000      -0.421153       -11.4602 
  93   1.0000      -0.419560       -11.4168 
  94   1.0000      -0.406564       -11.0632 
  95   1.0000      -0.404333       -11.0025 
  96   1.0000      -0.375869       -10.2279 
  97   1.0000      -0.359496        -9.7824 
  98   1.0000      -0.358970        -9.7681 
  99   1.0000      -0.352586        -9.5943 
 100   1.0000      -0.286858        -7.8058 
 101   1.0000      -0.284731        -7.7479 
 102   1.0000      -0.269608        -7.3364 
 103   1.0000      -0.260927        -7.1002 
 104   1.0000      -0.258913        -7.0454 
 105   0.0000      -0.122960        -3.3459 
 106   0.0000      -0.002815        -0.0766 
 107   0.0000       0.017517         0.4767 
 108   0.0000       0.024894         0.6774 
 109   0.0000       0.044087         1.1997 
 110   0.0000       0.058313         1.5868 
 111   0.0000       0.075440         2.0528 
 112   0.0000       0.083202         2.2640 
 113   0.0000       0.096754         2.6328 
 114   0.0000       0.105058         2.8588 
 115   0.0000       0.115396         3.1401 
*Only the first 10 virtual orbitals were printed.

                    ********************************
                    * MULLIKEN POPULATION ANALYSIS *
                    ********************************

--------------------------------------------
MULLIKEN ATOMIC CHARGES AND SPIN POPULATIONS
--------------------------------------------
   0 C :    0.476822    0.001125
   1 C :    0.323235    0.002737
   2 C :    0.320769    0.011092
   3 C :    0.376306    0.002502
   4 C :    0.087806    0.835577
   5 C :    0.374671   -0.027116
   6 C :    0.308752    0.030126
   7 C :    0.273137    0.002757
   8 F :   -0.155704   -0.000028
   9 F :   -0.153584    0.000027
  10 F :   -0.153084    0.000330
  11 F :   -0.166076   -0.000024
  12 F :   -0.164225    0.000177
  13 F :   -0.174949    0.000912
  14 F :   -0.171407    0.001942
  15 F :   -0.180315    0.023991
  16 F :   -0.177325    0.002392
  17 F :   -0.151322    0.083939
  18 F :   -0.189436    0.007336
  19 F :   -0.187105    0.008097
  20 F :   -0.218582    0.000429
  21 F :   -0.216631    0.000597
  22 O :   -0.491984    0.005217
  23 O :   -0.492630    0.005808
  24 O :   -0.721610    0.000026
  25 H :    0.325921    0.000022
  26 H :    0.346645   -0.000012
  27 H :    0.346927   -0.000032
  28 O :   -0.721897    0.000013
  29 H :    0.326875    0.000043
Sum of atomic charges         :   -1.0000000
Sum of atomic spin populations:    1.0000000

-----------------------------------------------------
MULLIKEN REDUCED ORBITAL CHARGES AND SPIN POPULATIONS
-----------------------------------------------------
CHARGE
  0 C s       :     3.025306  s :     3.025306
      pz      :     0.636649  p :     2.113308
      px      :     0.660627
      py      :     0.816032
      dz2     :     0.079240  d :     0.344198
      dxz     :     0.070695
      dyz     :     0.063859
      dx2y2   :     0.069855
      dxy     :     0.060550
      f0      :     0.006625  f :     0.040366
      f+1     :     0.007159
      f-1     :     0.004394
      f+2     :     0.006137
      f-2     :     0.007251
      f+3     :     0.004903
      f-3     :     0.003899

  1 C s       :     3.129231  s :     3.129231
      pz      :     0.594737  p :     2.241042
      px      :     0.734987
      py      :     0.911318
      dz2     :     0.074590  d :     0.278432
      dxz     :     0.052959
      dyz     :     0.061966
      dx2y2   :     0.033676
      dxy     :     0.055241
      f0      :     0.006112  f :     0.028060
      f+1     :     0.004557
      f-1     :     0.003192
      f+2     :     0.005011
      f-2     :     0.005021
      f+3     :     0.002255
      f-3     :     0.001913

  2 C s       :     3.154726  s :     3.154726
      pz      :     0.638024  p :     2.212243
      px      :     0.712471
      py      :     0.861749
      dz2     :     0.069775  d :     0.284204
      dxz     :     0.058955
      dyz     :     0.055615
      dx2y2   :     0.044391
      dxy     :     0.055467
      f0      :     0.004934  f :     0.028058
      f+1     :     0.005896
      f-1     :     0.003104
      f+2     :     0.004712
      f-2     :     0.003855
      f+3     :     0.003022
      f-3     :     0.002534

  3 C s       :     3.090827  s :     3.090827
      pz      :     0.653422  p :     2.215764
      px      :     0.677077
      py      :     0.885265
      dz2     :     0.057039  d :     0.289488
      dxz     :     0.069431
      dyz     :     0.065330
      dx2y2   :     0.040054
      dxy     :     0.057633
      f0      :     0.004559  f :     0.027616
      f+1     :     0.007092
      f-1     :     0.003528
      f+2     :     0.003012
      f-2     :     0.002921
      f+3     :     0.003021
      f-3     :     0.003483

  4 C s       :     3.262153  s :     3.262153
      pz      :     0.982614  p :     2.485700
      px      :     0.615261
      py      :     0.887825
      dz2     :     0.014042  d :     0.146816
      dxz     :     0.033355
      dyz     :     0.013509
      dx2y2   :     0.028865
      dxy     :     0.057045
      f0      :     0.002045  f :     0.017525
      f+1     :     0.002156
      f-1     :     0.001435
      f+2     :     0.002820
      f-2     :     0.001095
      f+3     :     0.003089
      f-3     :     0.004884

  5 C s       :     3.089771  s :     3.089771
      pz      :     0.887380  p :     2.221765
      px      :     0.591997
      py      :     0.742388
      dz2     :     0.055360  d :     0.286271
      dxz     :     0.056311
      dyz     :     0.047714
      dx2y2   :     0.066418
      dxy     :     0.060467
      f0      :     0.002622  f :     0.027522
      f+1     :     0.003909
      f-1     :     0.003353
      f+2     :     0.004086
      f-2     :     0.003400
      f+3     :     0.004711
      f-3     :     0.005441

  6 C s       :     3.166830  s :     3.166830
      pz      :     0.848565  p :     2.238461
      px      :     0.581284
      py      :     0.808612
      dz2     :     0.045047  d :     0.259231
      dxz     :     0.049491
      dyz     :     0.037195
      dx2y2   :     0.066611
      dxy     :     0.060888
      f0      :     0.002639  f :     0.026727
      f+1     :     0.003290
      f-1     :     0.002994
      f+2     :     0.003731
      f-2     :     0.003340
      f+3     :     0.004932
      f-3     :     0.005801

  7 C s       :     3.046813  s :     3.046813
      pz      :     0.806147  p :     2.397745
      px      :     0.714298
      py      :     0.877300
      dz2     :     0.011228  d :     0.257147
      dxz     :     0.072258
      dyz     :     0.023347
      dx2y2   :     0.076115
      dxy     :     0.074198
      f0      :     0.002316  f :     0.025157
      f+1     :     0.002288
      f-1     :     0.001215
      f+2     :     0.002411
      f-2     :     0.003329
      f+3     :     0.006492
      f-3     :     0.007106

  8 F s       :     3.912292  s :     3.912292
      pz      :     1.668640  p :     5.226022
      px      :     1.666162
      py      :     1.891219
      dz2     :     0.003115  d :     0.016635
      dxz     :     0.006840
      dyz     :     0.002065
      dx2y2   :     0.002538
      dxy     :     0.002076
      f0      :     0.000085  f :     0.000756
      f+1     :     0.000229
      f-1     :     0.000033
      f+2     :     0.000193
      f-2     :     0.000119
      f+3     :     0.000048
      f-3     :     0.000050

  9 F s       :     3.910776  s :     3.910776
      pz      :     1.598910  p :     5.225270
      px      :     1.811317
      py      :     1.815043
      dz2     :     0.004765  d :     0.016770
      dxz     :     0.004534
      dyz     :     0.004420
      dx2y2   :     0.001261
      dxy     :     0.001790
      f0      :     0.000125  f :     0.000768
      f+1     :     0.000182
      f-1     :     0.000171
      f+2     :     0.000093
      f-2     :     0.000154
      f+3     :     0.000024
      f-3     :     0.000020

 10 F s       :     3.911275  s :     3.911275
      pz      :     1.839390  p :     5.224342
      px      :     1.673231
      py      :     1.711721
      dz2     :     0.002058  d :     0.016700
      dxz     :     0.003034
      dyz     :     0.002451
      dx2y2   :     0.003389
      dxy     :     0.005769
      f0      :     0.000083  f :     0.000766
      f+1     :     0.000077
      f-1     :     0.000054
      f+2     :     0.000055
      f-2     :     0.000175
      f+3     :     0.000140
      f-3     :     0.000182

 11 F s       :     3.915630  s :     3.915630
      pz      :     1.599518  p :     5.233213
      px      :     1.736297
      py      :     1.897398
      dz2     :     0.004400  d :     0.016521
      dxz     :     0.006235
      dyz     :     0.002650
      dx2y2   :     0.001570
      dxy     :     0.001666
      f0      :     0.000111  f :     0.000713
      f+1     :     0.000259
      f-1     :     0.000063
      f+2     :     0.000127
      f-2     :     0.000110
      f+3     :     0.000019
      f-3     :     0.000024

 12 F s       :     3.914347  s :     3.914347
      pz      :     1.628794  p :     5.232537
      px      :     1.729936
      py      :     1.873807
      dz2     :     0.003862  d :     0.016617
      dxz     :     0.005980
      dyz     :     0.002966
      dx2y2   :     0.001739
      dxy     :     0.002072
      f0      :     0.000096  f :     0.000724
      f+1     :     0.000222
      f-1     :     0.000076
      f+2     :     0.000125
      f-2     :     0.000142
      f+3     :     0.000028
      f-3     :     0.000034

 13 F s       :     3.920555  s :     3.920555
      pz      :     1.542847  p :     5.237153
      px      :     1.830574
      py      :     1.863732
      dz2     :     0.005876  d :     0.016531
      dxz     :     0.004455
      dyz     :     0.004174
      dx2y2   :     0.000868
      dxy     :     0.001157
      f0      :     0.000172  f :     0.000710
      f+1     :     0.000192
      f-1     :     0.000164
      f+2     :     0.000064
      f-2     :     0.000099
      f+3     :     0.000009
      f-3     :     0.000009

 14 F s       :     3.916734  s :     3.916734
      pz      :     1.767978  p :     5.237473
      px      :     1.622981
      py      :     1.846514
      dz2     :     0.002273  d :     0.016493
      dxz     :     0.005315
      dyz     :     0.001992
      dx2y2   :     0.003167
      dxy     :     0.003745
      f0      :     0.000078  f :     0.000707
      f+1     :     0.000122
      f-1     :     0.000034
      f+2     :     0.000134
      f-2     :     0.000160
      f+3     :     0.000076
      f-3     :     0.000104

 15 F s       :     3.914642  s :     3.914642
      pz      :     1.480296  p :     5.249518
      px      :     1.888632
      py      :     1.880590
      dz2     :     0.007652  d :     0.015487
      dxz     :     0.002977
      dyz     :     0.004132
      dx2y2   :     0.000336
      dxy     :     0.000391
      f0      :     0.000285  f :     0.000668
      f+1     :     0.000127
      f-1     :     0.000196
      f+2     :     0.000026
      f-2     :     0.000030
      f+3     :     0.000002
      f-3     :     0.000001

 16 F s       :     3.926079  s :     3.926079
      pz      :     1.835900  p :     5.234313
      px      :     1.501501
      py      :     1.896912
      dz2     :     0.002059  d :     0.016235
      dxz     :     0.004626
      dyz     :     0.000660
      dx2y2   :     0.005147
      dxy     :     0.003744
      f0      :     0.000078  f :     0.000698
      f+1     :     0.000113
      f-1     :     0.000010
      f+2     :     0.000154
      f-2     :     0.000059
      f+3     :     0.000150
      f-3     :     0.000136

 17 F s       :     3.919645  s :     3.919645
      pz      :     1.834273  p :     5.213019
      px      :     1.480186
      py      :     1.898560
      dz2     :     0.002286  d :     0.017903
      dxz     :     0.005234
      dyz     :     0.000303
      dx2y2   :     0.006060
      dxy     :     0.004019
      f0      :     0.000079  f :     0.000756
      f+1     :     0.000139
      f-1     :     0.000010
      f+2     :     0.000139
      f-2     :     0.000026
      f+3     :     0.000203
      f-3     :     0.000160

 18 F s       :     3.915798  s :     3.915798
      pz      :     1.839402  p :     5.257332
      px      :     1.733577
      py      :     1.684352
      dz2     :     0.002180  d :     0.015627
      dxz     :     0.002553
      dyz     :     0.003077
      dx2y2   :     0.002802
      dxy     :     0.005015
      f0      :     0.000076  f :     0.000680
      f+1     :     0.000058
      f-1     :     0.000071
      f+2     :     0.000046
      f-2     :     0.000173
      f+3     :     0.000136
      f-3     :     0.000120

 19 F s       :     3.916169  s :     3.916169
      pz      :     1.871040  p :     5.254558
      px      :     1.507990
      py      :     1.875528
      dz2     :     0.002193  d :     0.015696
      dxz     :     0.004150
      dyz     :     0.000617
      dx2y2   :     0.005103
      dxy     :     0.003632
      f0      :     0.000070  f :     0.000682
      f+1     :     0.000124
      f-1     :     0.000013
      f+2     :     0.000118
      f-2     :     0.000050
      f+3     :     0.000161
      f-3     :     0.000147

 20 F s       :     3.918562  s :     3.918562
      pz      :     1.846796  p :     5.284002
      px      :     1.754688
      py      :     1.682518
      dz2     :     0.002203  d :     0.015354
      dxz     :     0.002423
      dyz     :     0.003022
      dx2y2   :     0.002862
      dxy     :     0.004844
      f0      :     0.000069  f :     0.000664
      f+1     :     0.000053
      f-1     :     0.000072
      f+2     :     0.000046
      f-2     :     0.000163
      f+3     :     0.000145
      f-3     :     0.000116

 21 F s       :     3.915106  s :     3.915106
      pz      :     1.880460  p :     5.285564
      px      :     1.520825
      py      :     1.884279
      dz2     :     0.002155  d :     0.015297
      dxz     :     0.003875
      dyz     :     0.000563
      dx2y2   :     0.004919
      dxy     :     0.003785
      f0      :     0.000061  f :     0.000664
      f+1     :     0.000118
      f-1     :     0.000013
      f+2     :     0.000108
      f-2     :     0.000045
      f+3     :     0.000160
      f-3     :     0.000159

 22 O s       :     3.817555  s :     3.817555
      pz      :     1.570112  p :     4.646994
      px      :     1.477881
      py      :     1.599001
      dz2     :     0.002489  d :     0.025766
      dxz     :     0.004814
      dyz     :     0.004049
      dx2y2   :     0.006935
      dxy     :     0.007478
      f0      :     0.000187  f :     0.001669
      f+1     :     0.000138
      f-1     :     0.000094
      f+2     :     0.000029
      f-2     :     0.000347
      f+3     :     0.000464
      f-3     :     0.000409

 23 O s       :     3.817768  s :     3.817768
      pz      :     1.558197  p :     4.647433
      px      :     1.326887
      py      :     1.762348
      dz2     :     0.002993  d :     0.025761
      dxz     :     0.008166
      dyz     :     0.000747
      dx2y2   :     0.006776
      dxy     :     0.007080
      f0      :     0.000155  f :     0.001668
      f+1     :     0.000271
      f-1     :     0.000019
      f+2     :     0.000342
      f-2     :     0.000062
      f+3     :     0.000373
      f-3     :     0.000445

 24 O s       :     3.789627  s :     3.789627
      pz      :     1.856981  p :     4.911845
      px      :     1.632184
      py      :     1.422680
      dz2     :     0.002775  d :     0.018919
      dxz     :     0.002587
      dyz     :     0.002249
      dx2y2   :     0.003769
      dxy     :     0.007538
      f0      :     0.000261  f :     0.001220
      f+1     :     0.000159
      f-1     :     0.000159
      f+2     :     0.000168
      f-2     :     0.000188
      f+3     :     0.000080
      f-3     :     0.000206

 25 H s       :     0.626900  s :     0.626900
      pz      :     0.016593  p :     0.047178
      px      :     0.012472
      py      :     0.018113

 26 H s       :     0.598894  s :     0.598894
      pz      :     0.014031  p :     0.054460
      px      :     0.023715
      py      :     0.016714

 27 H s       :     0.598546  s :     0.598546
      pz      :     0.015306  p :     0.054526
      px      :     0.028664
      py      :     0.010556

 28 O s       :     3.790209  s :     3.790209
      pz      :     1.802060  p :     4.911550
      px      :     1.558256
      py      :     1.551233
      dz2     :     0.002112  d :     0.018919
      dxz     :     0.001858
      dyz     :     0.004046
      dx2y2   :     0.009720
      dxy     :     0.001183
      f0      :     0.000311  f :     0.001219
      f+1     :     0.000110
      f-1     :     0.000074
      f+2     :     0.000441
      f-2     :     0.000070
      f+3     :     0.000150
      f-3     :     0.000062

 29 H s       :     0.625979  s :     0.625979
      pz      :     0.016501  p :     0.047146
      px      :     0.011885
      py      :     0.018759


SPIN
  0 C s       :     0.000530  s :     0.000530
      pz      :     0.000083  p :     0.000553
      px      :     0.000308
      py      :     0.000161
      dz2     :    -0.000004  d :     0.000034
      dxz     :     0.000006
      dyz     :    -0.000001
      dx2y2   :    -0.000013
      dxy     :     0.000045
      f0      :     0.000001  f :     0.000008
      f+1     :    -0.000001
      f-1     :    -0.000000
      f+2     :    -0.000000
      f-2     :    -0.000000
      f+3     :     0.000003
      f-3     :     0.000006

  1 C s       :    -0.000088  s :    -0.000088
      pz      :     0.000442  p :     0.002309
      px      :     0.001202
      py      :     0.000666
      dz2     :     0.000028  d :     0.000493
      dxz     :     0.000034
      dyz     :     0.000122
      dx2y2   :     0.000319
      dxy     :    -0.000009
      f0      :     0.000003  f :     0.000023
      f+1     :     0.000003
      f-1     :     0.000002
      f+2     :     0.000001
      f-2     :     0.000004
      f+3     :    -0.000000
      f-3     :     0.000009

  2 C s       :    -0.000403  s :    -0.000403
      pz      :     0.008176  p :     0.010525
      px      :     0.003044
      py      :    -0.000695
      dz2     :     0.000180  d :     0.000923
      dxz     :     0.000109
      dyz     :     0.000220
      dx2y2   :     0.000311
      dxy     :     0.000103
      f0      :     0.000001  f :     0.000047
      f+1     :     0.000002
      f-1     :     0.000029
      f+2     :    -0.000001
      f-2     :     0.000003
      f+3     :     0.000004
      f-3     :     0.000010

  3 C s       :    -0.016869  s :    -0.016869
      pz      :     0.020827  p :    -0.002296
      px      :    -0.005842
      py      :    -0.017282
      dz2     :     0.003079  d :     0.020317
      dxz     :     0.003171
      dyz     :     0.010955
      dx2y2   :     0.003384
      dxy     :    -0.000272
      f0      :     0.000504  f :     0.001350
      f+1     :     0.000009
      f-1     :     0.000016
      f+2     :     0.000066
      f-2     :     0.000634
      f+3     :     0.000056
      f-3     :     0.000065

  4 C s       :     0.047645  s :     0.047645
      pz      :     0.657048  p :     0.785804
      px      :     0.041168
      py      :     0.087587
      dz2     :    -0.000736  d :     0.003983
      dxz     :     0.001915
      dyz     :     0.000265
      dx2y2   :     0.000680
      dxy     :     0.001859
      f0      :    -0.000639  f :    -0.001855
      f+1     :    -0.000517
      f-1     :    -0.000427
      f+2     :    -0.000118
      f-2     :    -0.000077
      f+3     :    -0.000094
      f-3     :     0.000018

  5 C s       :    -0.011652  s :    -0.011652
      pz      :    -0.019733  p :    -0.037162
      px      :    -0.003335
      py      :    -0.014094
      dz2     :     0.011103  d :     0.020365
      dxz     :    -0.000027
      dyz     :     0.009527
      dx2y2   :    -0.000163
      dxy     :    -0.000075
      f0      :     0.000038  f :     0.001333
      f+1     :     0.000034
      f-1     :     0.000621
      f+2     :     0.000290
      f-2     :     0.000062
      f+3     :     0.000204
[...]
 35:    310.29   0.000042    0.21  0.000043  ( 0.002728 -0.004085  0.004293)
 36:    333.65   0.000206    1.04  0.000193  (-0.002759  0.011073  0.007905)
 37:    343.62   0.000528    2.67  0.000479  (-0.016826  0.006410 -0.012456)
 38:    346.05   0.000256    1.29  0.000231  (-0.004100 -0.008769 -0.011718)
 39:    357.64   0.000236    1.19  0.000206  (-0.010269  0.001051 -0.009987)
 40:    372.04   0.003319   16.77  0.002784  ( 0.006324  0.042295  0.030904)
 41:    373.43   0.000015    0.08  0.000012  ( 0.000312 -0.002228  0.002716)
 42:    405.52   0.006592   33.31  0.005073  ( 0.062734 -0.033591 -0.002984)
 43:    418.96   0.004993   25.23  0.003719  ( 0.054999  0.022925  0.012974)
 44:    434.03   0.019216   97.11  0.013816  (-0.008613 -0.106740 -0.048464)
 45:    437.68   0.008256   41.72  0.005886  (-0.070341  0.015231 -0.026577)
 46:    458.73   0.001922    9.71  0.001308  ( 0.030915  0.014586 -0.011799)
 47:    509.86   0.000912    4.61  0.000558  (-0.016024 -0.007130 -0.015825)
 48:    527.68   0.004704   23.77  0.002782  ( 0.033793 -0.040356 -0.003337)
 49:    550.96   0.001088    5.50  0.000616  (-0.008011  0.006821 -0.022484)
 50:    562.92   0.003896   19.69  0.002160  (-0.011723 -0.029648  0.033813)
 51:    575.10   0.005791   29.27  0.003142  (-0.023157 -0.050695  0.006013)
 52:    578.76   0.006483   32.76  0.003496  (-0.020851  0.038239  0.039982)
 53:    596.53   0.006745   34.08  0.003528  ( 0.002910 -0.054762 -0.022827)
 54:    617.59   0.006533   33.01  0.003301  ( 0.007160  0.055356  0.013620)
 55:    653.15   0.001124    5.68  0.000537  (-0.005002 -0.011950  0.019210)
 56:    677.04   0.007903   39.94  0.003642  ( 0.008455 -0.024048  0.054705)
 57:    678.51   0.042761  216.10  0.019667  ( 0.035042  0.039370 -0.129957)
 58:    688.62   0.033986  171.75  0.015402  (-0.000472  0.124087 -0.001936)
 59:    701.35   0.002597   13.13  0.001156  (-0.000121 -0.011367  0.032038)
 60:    724.45   0.017294   87.40  0.007450  (-0.016547  0.064306 -0.055142)
 61:    770.41   0.007891   39.88  0.003196  (-0.018750  0.050181 -0.018075)
 62:    806.76   0.021261  107.45  0.008224  ( 0.030122  0.076854  0.037552)
 63:    879.35   0.011950   60.39  0.004241  (-0.009188  0.040770 -0.049941)
 64:    979.88   0.000232    1.17  0.000074  (-0.003681 -0.004446 -0.006356)
 65:   1044.11   0.049412  249.71  0.014768  (-0.028511  0.081453  0.085562)
 66:   1095.46   0.068536  346.35  0.019524  (-0.081096 -0.058345  0.097689)
 67:   1105.14   0.067219  339.70  0.018981  (-0.109817  0.072228 -0.041285)
 68:   1115.27   0.002821   14.26  0.000789  ( 0.014235  0.017927 -0.016291)
 69:   1118.71   0.020587  104.04  0.005743  (-0.073334  0.009315 -0.016677)
 70:   1129.73   0.078387  396.14  0.021653  ( 0.134189  0.052449 -0.029920)
 71:   1143.83   0.048695  246.09  0.013285  (-0.021132  0.037127  0.107053)
 72:   1149.17   0.010220   51.65  0.002775  ( 0.021719  0.023707  0.041732)
 73:   1159.58   0.094578  477.96  0.025452  (-0.042419 -0.040109 -0.148473)
 74:   1167.36   0.112805  570.07  0.030155  (-0.173181  0.012767  0.000873)
 75:   1184.24   0.050492  255.16  0.013305  (-0.018881 -0.026299 -0.110712)
 76:   1187.52   0.021589  109.10  0.005673  ( 0.058262 -0.002276  0.047683)
 77:   1203.57   0.007938   40.11  0.002058  (-0.024248  0.036168 -0.012729)
 78:   1254.79   0.004148   20.96  0.001032  ( 0.000754  0.028749  0.014298)
 79:   1316.64   0.023982  121.19  0.005684  (-0.032775  0.061682 -0.028375)
 80:   1324.22   0.016649   84.14  0.003923  (-0.031695  0.053991  0.001954)
 81:   1363.17   0.058843  297.37  0.013471  ( 0.040418  0.091820  0.058363)
 82:   1394.58   0.012931   65.35  0.002893  (-0.011370  0.050223  0.015550)
 83:   1662.63   0.076555  386.88  0.014369  ( 0.115389 -0.030997  0.009662)
 84:   1665.24   0.014299   72.26  0.002680  ( 0.003094  0.048733  0.017180)
 85:   1711.63   0.192048  970.53  0.035014  (-0.178520  0.054352 -0.013808)
 86:   3464.46   0.354406  1791.02  0.031923  (-0.169917  0.053047 -0.015417)
 87:   3480.55   0.024560  124.12  0.002202  (-0.009428 -0.035080 -0.029708)
 88:   3807.63   0.013614   68.80  0.001116  (-0.023350 -0.018238 -0.015426)
 89:   3812.58   0.015177   76.70  0.001242  ( 0.008006 -0.031866 -0.012755)

* The epsilon (eps) is given for a Dirac delta lineshape.
** The dipole moment derivative (T) already includes vibrational overlap.

The first frequency considered to be a vibration is 6
The total number of vibrations considered is 84


--------------------------
THERMOCHEMISTRY AT 298.15K
--------------------------

Temperature         ...   298.15 K
Pressure            ...     1.00 atm
Total Mass          ...   430.09 AMU
Quasi RRHO          ...     True
Cut-Off Frequency   ...     1.00 cm^-1

Throughout the following assumptions are being made:
  (1) The electronic state is orbitally nondegenerate
      but the spin degeneracy is treated
  (2) There are no thermally accessible electronically excited states
  (3) Hindered rotations indicated by low frequency modes are not
      treated as such but are treated as vibrations and this may
      cause some error
  (4) All equations used are the standard statistical mechanics
      equations for an ideal gas
  (5) All vibrations are strictly harmonic

freq.      18.03  E(vib)   ...       0.57 
freq.      24.88  E(vib)   ...       0.56 
freq.      31.36  E(vib)   ...       0.55 
freq.      32.86  E(vib)   ...       0.55 
freq.      49.48  E(vib)   ...       0.52 
freq.      55.63  E(vib)   ...       0.52 
freq.      57.21  E(vib)   ...       0.51 
freq.      60.47  E(vib)   ...       0.51 
freq.      64.35  E(vib)   ...       0.51 
freq.      67.95  E(vib)   ...       0.50 
freq.      84.10  E(vib)   ...       0.48 
freq.      93.24  E(vib)   ...       0.47 
freq.     109.85  E(vib)   ...       0.45 
freq.     117.90  E(vib)   ...       0.44 
freq.     127.80  E(vib)   ...       0.43 
freq.     140.52  E(vib)   ...       0.41 
freq.     154.79  E(vib)   ...       0.40 
freq.     159.11  E(vib)   ...       0.39 
freq.     183.56  E(vib)   ...       0.37 
freq.     189.33  E(vib)   ...       0.36 
freq.     193.58  E(vib)   ...       0.36 
freq.     207.54  E(vib)   ...       0.34 
freq.     218.84  E(vib)   ...       0.33 
freq.     225.05  E(vib)   ...       0.33 
freq.     240.80  E(vib)   ...       0.31 
freq.     244.84  E(vib)   ...       0.31 
freq.     276.80  E(vib)   ...       0.28 
freq.     282.85  E(vib)   ...       0.28 
freq.     287.04  E(vib)   ...       0.27 
freq.     310.29  E(vib)   ...       0.26 
freq.     333.65  E(vib)   ...       0.24 
freq.     343.62  E(vib)   ...       0.23 
freq.     346.05  E(vib)   ...       0.23 
freq.     357.64  E(vib)   ...       0.22 
freq.     372.04  E(vib)   ...       0.21 
freq.     373.43  E(vib)   ...       0.21 
freq.     405.52  E(vib)   ...       0.19 
freq.     418.96  E(vib)   ...       0.18 
freq.     434.03  E(vib)   ...       0.17 
freq.     437.68  E(vib)   ...       0.17 
freq.     458.73  E(vib)   ...       0.16 
freq.     509.86  E(vib)   ...       0.14 
freq.     527.68  E(vib)   ...       0.13 
freq.     550.96  E(vib)   ...       0.12 
freq.     562.92  E(vib)   ...       0.11 
freq.     575.10  E(vib)   ...       0.11 
freq.     578.76  E(vib)   ...       0.11 
freq.     596.53  E(vib)   ...       0.10 
freq.     617.59  E(vib)   ...       0.09 
freq.     653.15  E(vib)   ...       0.08 
freq.     677.04  E(vib)   ...       0.08 
freq.     678.51  E(vib)   ...       0.08 
freq.     688.62  E(vib)   ...       0.07 
freq.     701.35  E(vib)   ...       0.07 
freq.     724.45  E(vib)   ...       0.06 
freq.     770.41  E(vib)   ...       0.05 
freq.     806.76  E(vib)   ...       0.05 
freq.     879.35  E(vib)   ...       0.04 
freq.     979.88  E(vib)   ...       0.02 
freq.    1044.11  E(vib)   ...       0.02 
freq.    1095.46  E(vib)   ...       0.02 
freq.    1105.14  E(vib)   ...       0.02 
freq.    1115.27  E(vib)   ...       0.01 
freq.    1118.71  E(vib)   ...       0.01 
freq.    1129.73  E(vib)   ...       0.01 
freq.    1143.83  E(vib)   ...       0.01 
freq.    1149.17  E(vib)   ...       0.01 
freq.    1159.58  E(vib)   ...       0.01 
freq.    1167.36  E(vib)   ...       0.01 
freq.    1184.24  E(vib)   ...       0.01 
freq.    1187.52  E(vib)   ...       0.01 
freq.    1203.57  E(vib)   ...       0.01 
freq.    1254.79  E(vib)   ...       0.01 
freq.    1316.64  E(vib)   ...       0.01 
freq.    1324.22  E(vib)   ...       0.01 
freq.    1363.17  E(vib)   ...       0.01 
freq.    1394.58  E(vib)   ...       0.00 
freq.    1662.63  E(vib)   ...       0.00 
freq.    1665.24  E(vib)   ...       0.00 
freq.    1711.63  E(vib)   ...       0.00 
freq.    3464.46  E(vib)   ...       0.00 
freq.    3480.55  E(vib)   ...       0.00 
freq.    3807.63  E(vib)   ...       0.00 
freq.    3812.58  E(vib)   ...       0.00 

------------
INNER ENERGY
------------

The inner energy is: U= E(el) + E(ZPE) + E(vib) + E(rot) + E(trans)
    E(el)   - is the total energy from the electronic structure calculation
              = E(kin-el) + E(nuc-el) + E(el-el) + E(nuc-nuc)
    E(ZPE)  - the the zero temperature vibrational energy from the frequency calculation
    E(vib)  - the the finite temperature correction to E(ZPE) due to population
              of excited vibrational states
    E(rot)  - is the rotational thermal energy
    E(trans)- is the translational thermal energy

Summary of contributions to the inner energy U:
Electronic energy                ...  -2006.17879828 Eh
Zero point energy                ...      0.14063625 Eh      88.25 kcal/mol
Thermal vibrational correction   ...      0.02634357 Eh      16.53 kcal/mol
Thermal rotational correction    ...      0.00141627 Eh       0.89 kcal/mol
Thermal translational correction ...      0.00141627 Eh       0.89 kcal/mol
-----------------------------------------------------------------------
Total thermal energy                  -2006.00898592 Eh


Summary of corrections to the electronic energy:
(perhaps to be used in another calculation)
Total thermal correction                  0.02917611 Eh      18.31 kcal/mol
Non-thermal (ZPE) correction              0.14063625 Eh      88.25 kcal/mol
-----------------------------------------------------------------------
Total correction                          0.16981236 Eh     106.56 kcal/mol


--------
ENTHALPY
--------

The enthalpy is H = U + kB*T
                kB is Boltzmann's constant
Total thermal energy              ...  -2006.00898592 Eh 
Thermal Enthalpy correction       ...      0.00094421 Eh       0.59 kcal/mol
-----------------------------------------------------------------------
Total Enthalpy                    ...  -2006.00804171 Eh


Note: Only C1 symmetry has been detected, increase convergence thresholds 
      if your molecule has a higher symmetry. Symmetry factor of 1.0 is   
      used for the rotational entropy correction. 
 

Note: Rotational entropy computed according to Herzberg 
Infrared and Raman Spectra, Chapter V,1, Van Nostrand Reinhold, 1945 
Point Group:  C1, Symmetry Number:   1  
Rotational constants in cm-1:     0.012082     0.003931     0.003657 

Vibrational entropy computed according to the QRRHO of S. Grimme
Chem.Eur.J. 2012 18 9955 using a reference frequency of 100.0 cm-1


-------
ENTROPY
-------

The entropy contributions are T*S = T*(S(el)+S(vib)+S(rot)+S(trans))
     S(el)   - electronic entropy
     S(vib)  - vibrational entropy
     S(rot)  - rotational entropy
     S(trans)- translational entropy
The entropies will be listed as multiplied by the temperature to get
units of energy

Electronic entropy                ...      0.00065446 Eh      0.41 kcal/mol
Vibrational entropy               ...      0.04852590 Eh     30.45 kcal/mol
Rotational entropy                ...      0.01685945 Eh     10.58 kcal/mol
Translational entropy             ...      0.02093733 Eh     13.14 kcal/mol
-----------------------------------------------------------------------
Final entropy term                ...      0.08697714 Eh     54.58 kcal/mol

In case the symmetry of your molecule has not been determined correctly
or in case you have a reason to use a different symmetry number we print 
out the resulting rotational entropy values for sn=1,12:

 non-linear molecules -----------------------------------
|  sn= 1 | S(rot)=       0.01685945 Eh     10.58 kcal/mol|
|  sn= 2 | S(rot)=       0.01620500 Eh     10.17 kcal/mol|
|  sn= 3 | S(rot)=       0.01582216 Eh      9.93 kcal/mol|
|  sn= 4 | S(rot)=       0.01555054 Eh      9.76 kcal/mol|
|  sn= 5 | S(rot)=       0.01533985 Eh      9.63 kcal/mol|
|  sn= 6 | S(rot)=       0.01516771 Eh      9.52 kcal/mol|
|  sn= 7 | S(rot)=       0.01502216 Eh      9.43 kcal/mol|
|  sn= 8 | S(rot)=       0.01489608 Eh      9.35 kcal/mol|
|  sn= 9 | S(rot)=       0.01478488 Eh      9.28 kcal/mol|
|  sn=10 | S(rot)=       0.01468540 Eh      9.22 kcal/mol|
|  sn=11 | S(rot)=       0.01459541 Eh      9.16 kcal/mol|
|  sn=12 | S(rot)=       0.01451325 Eh      9.11 kcal/mol|
 linear molecules ---------------------------------------
|  Dinfh | S(rot)=       0.01062374 Eh      6.67 kcal/mol|
|  Cinfv | S(rot)=       0.01127820 Eh      7.08 kcal/mol|
 --------------------------------------------------------


-------------------
GIBBS FREE ENERGY
-------------------

The Gibbs free energy is G = H - T*S

Total enthalpy                    ...  -2006.00804171 Eh 
Total entropy correction          ...     -0.08697714 Eh    -54.58 kcal/mol
-----------------------------------------------------------------------
Final Gibbs free energy         ...  -2006.09501885 Eh

For completeness - the Gibbs free energy minus the electronic energy
G-E(el)                           ...      0.08377943 Eh     52.57 kcal/mol


Maximum memory used throughout the entire PROP-calculation: 708.8 MB

--------------------------------
SUGGESTED CITATIONS FOR THIS RUN
--------------------------------

Below you find a list of papers that are relevant to this ORCA run
We neither can nor want to force you to cite these papers, but we appreciate if you do
You receive ORCA, which is the product of decades of hard work by many enthusiastic individuals, for free
The only thing we kindly ask in return is that you cite our papers,
We deeply appreciate it, if you show your appreciation for ORCA by not just citing the generic ORCA reference.

Please note that relegating all ORCA citations to the supporting information does *not* help us.
SI sections are not indexed - citations you put there will not count into any citation statistics
But we need these citations in order to attract the funding resources that allow us to do what we are doing

Therefore, if you are a happy ORCA user, please consider citing a few of the papers listed below in the main body of your paper

In addition to the list printed below, the program has created the file rf_mecn_2H2O_freq_B3Y_con_02.bibtex that contains the list in bibtex format
You can import this file easily into all common literature databanks and citation aid programs


List of essential papers. We consider these as the minimum necessary citations

  1. Neese,F.
     Software update: the ORCA program system, version 5.0
     WIRES Comput. Molec. Sci., 2022 12(1)e1606
     doi.org/10.1002/wcms.1606

List of papers to cite with high priority. The work reported in these papers was absolutely
necessary for this run to complete.
Our perspective: the developers of density functionals and basis sets usually get cited in chemistry papers
Good! But without the algorithms to do something with them, the functionals or basis sets would not do anything.
Hence, in our opinion, the algorithm design and method developments papers are equally worthy of getting cited

  1. Neese,F.
     An improvement of the resolution of the identity approximation for the formation of the Coulomb matrix
     J. Comp. Chem., 2003 24(14)1740-1747
     doi.org/10.1002/jcc.10318
  2. Neese,F.; Wennmohs,F.; Hansen,A.; Becker,U.
     Efficient, approximate and parallel Hartree-Fock and hybrid DFT calculations. A 'chain-of-spheres' algorithm for the Hartree-Fock exchange
     Chem. Phys., 2009 356(1-3)98-109
     doi.org/10.1016/j.chemphys.2008.10.036
  3. Bykov,D.; Petrenko,T.; Izsak,R.; Kossmann,S.; Becker,U.; Valeev,E.; Neese,F.
     Efficient implementation of the analytic second derivatives of Hartree-Fock and hybrid DFT energies: a detailed analysis of different approximations
     Molec. Phys., 2015 113 1961-1977
     doi.org/10.1080/00268976.2015.1025114
  4. Garcia-Rates,M.; Neese,F.
     Efficient implementation of the analytical second derivatives of hartree-fock and hybrid DFT energies within the framework of the conductor-like polarizable continuum model
     J. Comput. Chem., 2019 40 1816-1828
     doi.org/10.1002/jcc.25833
  5. Garcia-Rates,M.; Neese,F.
     Effect of the Solute Cavity on the Solvation Energy and its Derivatives within the Framework of the Gaussian Charge Scheme
     J. Comput. Chem., 2020 41 922-939
     doi.org/10.1002/jcc.26139
  6. Helmich-Paris,B.; de Souza,B.; Neese,F.; Izsák,R.
     An improved chain of spheres for exchange algorithm
     J. Chem. Phys., 2021 155 104109
     doi.org/doi: 10.1063/5.0058766.
  7. Neese,F.
     The SHARK Integral Generation and Digestion System
     J. Comp. Chem., 2022  1-16
     doi.org/10.1002/jcc.26942
  8. Grimme,S.; Antony,J.; Ehrlich,S.; Krieg,H.
     A consistent and accurate ab initio parametrization of density functional dispersion correction (DFT-D) for the 94 elements H-Pu
     J. Chem. Phys., 2010 132 154104
     doi.org/10.1063/1.3382344
  9. Grimme,S.; Ehrlich,S.; Goerigk,L.
     Effect of the damping function in dispersion corrected density functional theory
     J. Comput. Chem., 2011 32(7)1456-1465
     doi.org/10.1002/jcc.21759

List of suggested additional citations. These are papers that are important in the 'surrounding' of 
of this run, or papers that preceded the highly important papers. If you like your results we are grateful for a citation.

  1. Izsak,R.; Neese,F.
     An overlap fitted chain of spheres exchange method
     J. Chem. Phys., 2011 135 144105
     doi.org/10.1063/1.3646921
  2. Izsak,R.; Hansen,A.; Neese,F.
     The resolution of identity and chain of spheres approximations for the LPNO-CCSD singles Fock term
     Molec. Phys., 2012 110 2413-2417
     doi.org/10.1080/00268976.2012.687466
  3. Neese,F.
     The ORCA program system
     WIRES Comput. Molec. Sci., 2012 2(1)73-78
     doi.org/10.1002/wcms.81
  4. Izsak,R.; Neese,F.; Klopper,W.
     Robust fitting techniques in the chain of spheres approximation to the Fock exchange: The role of the complementary space
     J. Chem. Phys., 2013 139 
     doi.org/10.1063/1.4819264
  5. Neese,F.
     Software update: the ORCA program system, version 4.0
     WIRES Comput. Molec. Sci., 2018 8(1)1-6
     doi.org/10.1002/wcms.1327
  6. Neese,F.; Wennmohs,F.; Becker,U.; Riplinger,C.
     The ORCA quantum chemistry program package
     J. Chem. Phys., 2020 152 Art. No. L224108
     doi.org/10.1063/5.0004608

List of optional additional citations

  1. Neese,F.
     Approximate second-order SCF convergence for spin unrestricted wavefunctions
     Chem. Phys. Lett., 2000 325(1-3)93-98
     doi.org/10.1016/s0009-2614(00)00662-x

Timings for individual modules:

Sum of individual times          ...     1598.512 sec (=  26.642 min)
Startup calculation              ...        3.871 sec (=   0.065 min)   0.2 %
SCF iterations                   ...       99.985 sec (=   1.666 min)   6.3 %
Property integrals               ...      347.338 sec (=   5.789 min)  21.7 %
SCF Response                     ...      797.856 sec (=  13.298 min)  49.9 %
Property calculations            ...      349.463 sec (=   5.824 min)  21.9 %
                             ****ORCA TERMINATED NORMALLY****
TOTAL RUN TIME: 0 days 0 hours 26 minutes 39 seconds 647 msec
