
                                 *****************
                                 * O   R   C   A *
                                 *****************

                                            #,                                       
                                            ###                                      
                                            ####                                     
                                            #####                                    
                                            ######                                   
                                           ########,                                 
                                     ,,################,,,,,                         
                               ,,#################################,,                 
                          ,,##########################################,,             
                       ,#########################################, ''#####,          
                    ,#############################################,,   '####,        
                  ,##################################################,,,,####,       
                ,###########''''           ''''###############################       
              ,#####''   ,,,,##########,,,,          '''####'''          '####       
            ,##' ,,,,###########################,,,                        '##       
           ' ,,###''''                  '''############,,,                           
         ,,##''                                '''############,,,,        ,,,,,,###''
      ,#''                                            '''#######################'''  
     '                                                          ''''####''''         
             ,#######,   #######,   ,#######,      ##                                
            ,#'     '#,  ##    ##  ,#'     '#,    #''#        ,####,   ,####,        
            ##       ##  ##   ,#'  ##            #'  '#       #'       #'  '#        
            ##       ##  #######   ##           ,######,      #####,   #    #        
            '#,     ,#'  ##    ##  '#,     ,#' ,#      #,     #,   #   #,  ,#        
             '#######'   ##     ##  '#######'  #'      '#     '####' # '####'        



                #########################################################
                #                        -***-                          #
                #          Department of theory and spectroscopy        #
                #                                                       #
                #                      Frank Neese                      #
                #                                                       #
                #     Directorship, Architecture, Infrastructure        #
                #                    SHARK, DRIVERS                     #
                #        Core code/Algorithms in most modules           #
                #                                                       #
                #        Max Planck Institute fuer Kohlenforschung      #
                #                Kaiser Wilhelm Platz 1                 #
                #                 D-45470 Muelheim/Ruhr                 #
                #                      Germany                          #
                #                                                       #
                #                  All rights reserved                  #
                #                        -***-                          #
                #########################################################


                         Program Version 6.0.1  -  RELEASE   -


 With contributions from (in alphabetic order):
[Max-Planck-Institut fuer Kohlenforschung]                               
  Daniel Aravena         : Magnetic Suceptibility                        
  Michael Atanasov       : Ab Initio Ligand Field Theory (pilot matlab implementation)
  Alexander A. Auer      : GIAO ZORA, VPT2 properties, NMR spectrum      
  Ute Becker             : All parallelization in ORCA, NUMFREQ, NUMCALC 
  Giovanni Bistoni       : ED, misc. LED, open-shell LED, HFLD           
  Martin Brehm           : Molecular dynamics                            
  Dmytro Bykov           : pre 5.0 version of the SCF Hessian            
  Marcos Casanova-Páez   : Triplet and SCS-CIS(D). UHF-(DLPNO)-IP/EA/STEOM-CCSD. UHF-CVS-IP/STEOM-CCSD   
  Vijay G. Chilkuri      : MRCI spin determinant printing, contributions to CSF-ICE 
  Pauline Colinet        : FMM embedding                                 
  Dipayan Datta          : RHF DLPNO-CCSD density                        
  Achintya Kumar Dutta   : EOM-CC, STEOM-CC                              
  Nicolas Foglia         : Exact transition moments, OPA infrastructure, MCD improvements    
  Dmitry Ganyushin       : Spin-Orbit,Spin-Spin,Magnetic field MRCI      
  Miquel Garcia-Rates    : C-PCM and meta-GGA Hessian, CCSD/C-PCM, Gaussian charge scheme 
  Tiago L. C. Gouveia    : GS-ROHF, GS-ROCIS                             
  Yang Guo               : DLPNO-NEVPT2, F12-NEVPT2, CIM, IAO-localization        
  Andreas Hansen         : Spin unrestricted coupled pair/coupled cluster methods 
  Ingolf Harden          : AUTO-CI MPn and infrastructure                
  Benjamin Helmich-Paris : MC-RPA, TRAH-(SCF,CASSCF), AVAS, COSX integrals, SCF dyn. polar. 
  Lee Huntington         : MR-EOM, pCC                                   
  Robert Izsak           : Overlap fitted RIJCOSX, COSX-SCS-MP3, EOM     
  Riya Kayal             : Wick's Theorem for AUTO-CI, AUTO-CI UHF-CCSDT 
  Emily Kempfer          : AUTO-CI, RHF CISDT and CCSDT                  
  Christian Kollmar      : KDIIS, OOCD, Brueckner-CCSD(T), CCSD density, CASPT2, CASPT2-K, improved NEVPT2 
  Axel Koslowski         : Symmetry handling                             
  Simone Kossmann        : meta-GGA functionals, TD-DFT gradient, OOMP2, (MP2 Hessian; deprecated post 5.0) 
  Lucas Lang             : DCDCAS                                        
  Marvin Lechner         : AUTO-CI (C++ implementation), FIC-MRCC        
  Spencer Leger          : CASSCF response                               
  Dagmar Lenk            : GEPOL surface, SMD, ORCA-2-JSON               
  Dimitrios Liakos       : Extrapolation schemes; Compound Job, initial MDCI parallelization 
  Dimitrios Manganas     : Further ROCIS development; embedding schemes. LFT, Crystal Embedding 
  Dimitrios Pantazis     : SARC Basis sets                               
  Anastasios Papadopoulos: AUTO-CI, single reference methods and gradients 
  Taras Petrenko         : pre 6.0 DFT Hessian and TD-DFT gradient, (ASA, deprecated), ECA, 1-Electron XAS/XES, NRVS 
  Peter Pinski           : DLPNO-MP2, DLPNO-MP2 Gradient                 
  Christoph Reimann      : Effective Core Potentials                     
  Marius Retegan         : Local ZFS, SOC                                
  Christoph Riplinger    : Optimizer, TS searches, QM/MM, DLPNO-CCSD(T), (RO)-DLPNO pert. Triples 
  Michael Roemelt        : Original ROCIS implementation                 
  Masaaki Saitow         : Open-shell DLPNO-CCSD energy and density      
  Barbara Sandhoefer     : DKH picture change effects                    
  Kantharuban Sivalingam : CASSCF convergence/infrastructure, NEVPT2 and variants, FIC-MRCI 
  Bernardo de Souza      : ESD, SOC TD-DFT                               
  Georgi L. Stoychev     : AutoAux, RI-MP2 NMR, DLPNO-MP2 response, X2C  
  Van Anh Tran           : RI-MP2 g-tensors                              
  Willem Van den Heuvel  : Paramagnetic NMR                              
  Zikuan Wang            : NOTCH, Electric field optimization            
  Frank Wennmohs         : Technical directorship and infrastructure     
  Hang Xu                : AUTO-CI-Response properties                   
                                                                         
[FACCTs GmbH]                                                            
  Markus Bursch, Miquel Garcia-Rates, Christoph Riplinger, Bernardo de Souza, Georgi L. Stoychev 
                                                                 
  APM, Basis sets (HGBS, AHGBS, def-TZVP (Ac-Lr), def2-XVPD (La-Lu)), CI-OPT, improved COSX, DLPNO-Multilevel,           
  DOCKER, DRACO, updates on ESD, GOAT, IRC, LR-CPCM, MBIS, meta-GGA TD-DFT gradient, ML-optimized integration grids, 
  MM, NACMEs, nearIR, NEB, NEB-TS, NL-DFT gradient (VV10), 2- and 3-layer-ONIOM, interface openCOSMO-RS, QMMM,   
  Crystal-QMMM, SF, symmetry and pop. for TD-DFT, r2SCAN hybrids, SOLVATOR                                   
                                                                         
[Other institutions]                                                     
  V. Asgeirsson          : NEB                                           
  Christoph Bannwarth    : sTDA-DFT, sTD-DFT, PBEh-3c, B97-3c, D3        
  Sebastian Ehlert       : rSCAN, r2SCAN, r2SCAN-3c, D4, dhf basis sets  
  Marvin Friede          : D4 for Fr, Ra, Ac-Lr                          
  Lars Goerigk           : TD-DFT with DH, B97 family of functionals     
  Stefan Grimme          : VdW corrections, initial TS optimization, DFT functionals, gCP, sTDA/sTD-DF 
  Waldemar Hujo          : DFT-NL                                        
  H. Jonsson             : NEB                                           
  Holger Kruse           : gCP                                           
  Marcel Mueller         : wB97X-3c, vDZP basis set                      
  Hagen Neugebauer       : wr2SCAN                                       
  Tobias Risthaus        : range-separated hybrid DFT                    
  Lukas Wittmann         : regularized MP2, r2SCAN double-hybrids, wr2SCAN        
                                                                         
We gratefully acknowledge several colleagues who have allowed us to      
interface, adapt or use parts of their codes:                            
  Ed Valeev, F. Pavosevic, A. Kumar             : LibInt (2-el integral package), F12 methods 
  Garnet Chan, S. Sharma, J. Yang, R. Olivares  : DMRG                   
  Ulf Ekstrom                                   : XCFun DFT Library      
  Mihaly Kallay                                 : mrcc  (arbitrary order and MRCC methods)
  Frank Weinhold                                : gennbo (NPA and NBO analysis)           
  Simon Mueller                                 : openCOSMO-RS                            
  Christopher J. Cramer and Donald G. Truhlar   : smd solvation model                     
  S Lehtola, MJT Oliveira, MAL Marques          : LibXC Library                           
  Liviu Ungur et al                             : ANISO software                          


 Your calculation uses the libint2 library for the computation of 2-el integrals
 For citations please refer to: http://libint.valeyev.net

 Your ORCA version has been built with support for libXC version: 6.2.2
 For citations please refer to: https://libxc.gitlab.io

 This ORCA versions uses:
   CBLAS   interface :  Fast vector & matrix operations
   LAPACKE interface :  Fast linear algebra routines
   SCALAPACK package :  Parallel linear algebra routines
   Shared memory     :  Shared parallel matrices
   BLAS/LAPACK       :  OpenBLAS 0.3.27  USE64BITINT DYNAMIC_ARCH NO_AFFINITY SkylakeX SINGLE_THREADED
        Core in use  :  SkylakeX
   Copyright (c) 2011-2014, The OpenBLAS Project


NOTE: MaxCore=8000 MB was set to SCF,MP2,MDCI,CIPSI,MRCI and CIS
      => If you want to overwrite this, your respective input block should be placed after the MaxCore statement
Your calculation utilizes the atom-pairwise dispersion correction
with the Becke-Johnson damping scheme (D3BJ)


Your calculation utilizes the SMD solvation module
Please cite in your paper:
A.V. Marenich, C.J. Cramer, D.G. Truhlar J. Phys. Chem. B, 113, (2009), 6378 

Warning: RI is on but no J-basis has been assigned. Assigning Def2/J (nothing to worry about!)
================================================================================

----- Orbital basis set information -----
Your calculation utilizes the basis: def2-TZVP
   F. Weigend and R. Ahlrichs, Phys. Chem. Chem. Phys. 7, 3297 (2005).

----- AuxJ basis set information -----
Your calculation utilizes the auxiliary basis: def2/J
   F. Weigend, Phys. Chem. Chem. Phys. 8, 1057 (2006).

================================================================================
                                        WARNINGS
                       Please study these warnings very carefully!
================================================================================


WARNING: your system is open-shell and RHF/RKS was chosen
  ===> : WILL SWITCH to UHF/UKS


================================================================================
                                       INPUT FILE
================================================================================
NAME = rf_mecn_freq_B3L_C4_P_B.inp
|  1> !B3LYP def2-TZVP freq d3 TightSCF SlowConv defgrid2
|  2>  
|  3> %pal
|  4> nprocs 20
|  5> end
|  6>  
|  7> %scf
|  8> MaxIter 1500
|  9> end
| 10>  
| 11> %maxcore 8000
| 12>  
| 13> !CPCM
| 14> %cpcm smd true
| 15> SMDsolvent "ACETONITRILE"
| 16> end
| 17>  
| 18> * xyz 0 2
| 19> 6        4.248093000     -0.317620000      0.634138000
| 20> 8        5.020930000     -1.129040000     -0.072440000
| 21> 8        4.598110000      0.500745000      1.434658000
| 22> 6        2.753220000     -0.534893000      0.286298000
| 23> 6        2.286331000      0.283536000     -0.960284000
| 24> 6        0.856025000      0.048306000     -1.352744000
| 25> 6       -0.367351000      0.756761000     -0.863067000
| 26> 6       -1.505405000     -0.228124000     -0.408188000
| 27> 6       -2.604112000      0.445906000      0.479426000
| 28> 6       -3.925611000     -0.379170000      0.606128000
| 29> 9        2.499071000     -1.841294000      0.036024000
| 30> 9        2.007224000     -0.150473000      1.342508000
| 31> 9        2.495327000      1.595089000     -0.694350000
| 32> 9        3.077934000     -0.076355000     -2.001944000
| 33> 9        0.645981000     -0.949599000     -2.192775000
| 34> 9       -0.047753000      1.559514000      0.175642000
| 35> 9       -0.883006000      1.539996000     -1.853707000
| 36> 9       -0.949058000     -1.230589000      0.303842000
| 37> 9       -2.080718000     -0.755468000     -1.507820000
| 38> 9       -2.926632000      1.651083000     -0.030554000
| 39> 9       -2.109126000      0.616617000      1.719814000
| 40> 9       -3.661458000     -1.640403000      0.955205000
| 41> 9       -4.689153000      0.177124000      1.549127000
| 42> 9       -4.601139000     -0.376807000     -0.542463000
| 43> 1        5.958454000     -0.961552000      0.150259000
| 44> *
| 45> 
| 46>                          ****END OF INPUT****
================================================================================

                       ****************************
                       * Single Point Calculation *
                       ****************************

---------------------------------
CARTESIAN COORDINATES (ANGSTROEM)
---------------------------------
  C      4.248093   -0.317620    0.634138
  O      5.020930   -1.129040   -0.072440
  O      4.598110    0.500745    1.434658
  C      2.753220   -0.534893    0.286298
  C      2.286331    0.283536   -0.960284
  C      0.856025    0.048306   -1.352744
  C     -0.367351    0.756761   -0.863067
  C     -1.505405   -0.228124   -0.408188
  C     -2.604112    0.445906    0.479426
  C     -3.925611   -0.379170    0.606128
  F      2.499071   -1.841294    0.036024
  F      2.007224   -0.150473    1.342508
  F      2.495327    1.595089   -0.694350
  F      3.077934   -0.076355   -2.001944
  F      0.645981   -0.949599   -2.192775
  F     -0.047753    1.559514    0.175642
  F     -0.883006    1.539996   -1.853707
  F     -0.949058   -1.230589    0.303842
  F     -2.080718   -0.755468   -1.507820
  F     -2.926632    1.651083   -0.030554
  F     -2.109126    0.616617    1.719814
  F     -3.661458   -1.640403    0.955205
  F     -4.689153    0.177124    1.549127
  F     -4.601139   -0.376807   -0.542463
  H      5.958454   -0.961552    0.150259

----------------------------
CARTESIAN COORDINATES (A.U.)
----------------------------
  NO LB      ZA    FRAG     MASS         X           Y           Z
   0 C     6.0000    0    12.011    8.027732   -0.600215    1.198347
   1 O     8.0000    0    15.999    9.488183   -2.133576   -0.136892
   2 O     8.0000    0    15.999    8.689169    0.946271    2.711111
   3 C     6.0000    0    12.011    5.202832   -1.010801    0.541025
   4 C     6.0000    0    12.011    4.320539    0.535805   -1.814674
   5 C     6.0000    0    12.011    1.617653    0.091285   -2.556316
   6 C     6.0000    0    12.011   -0.694193    1.430071   -1.630960
   7 C     6.0000    0    12.011   -2.844803   -0.431092   -0.771364
   8 C     6.0000    0    12.011   -4.921059    0.842640    0.905984
   9 C     6.0000    0    12.011   -7.418330   -0.716527    1.145416
  10 F     9.0000    0    18.998    4.722560   -3.479541    0.068075
  11 F     9.0000    0    18.998    3.793104   -0.284353    2.536972
  12 F     9.0000    0    18.998    4.715485    3.014281   -1.312131
  13 F     9.0000    0    18.998    5.816452   -0.144290   -3.783126
  14 F     9.0000    0    18.998    1.220727   -1.794482   -4.143744
  15 F     9.0000    0    18.998   -0.090240    2.947054    0.331915
  16 F     9.0000    0    18.998   -1.668640    2.910171   -3.502999
  17 F     9.0000    0    18.998   -1.793460   -2.325476    0.574178
  18 F     9.0000    0    18.998   -3.931987   -1.427628   -2.849367
  19 F     9.0000    0    18.998   -5.530533    3.120095   -0.057739
  20 F     9.0000    0    18.998   -3.985671    1.165237    3.249977
  21 F     9.0000    0    18.998   -6.919153   -3.099912    1.805076
  22 F     9.0000    0    18.998   -8.861215    0.334716    2.927426
  23 F     9.0000    0    18.998   -8.694893   -0.712062   -1.025107
  24 H     1.0000    0     1.008   11.259846   -1.817070    0.283948

--------------------------------
INTERNAL COORDINATES (ANGSTROEM)
--------------------------------
 C      0   0   0     0.000000000000     0.00000000     0.00000000
 O      1   0   0     1.324738432693     0.00000000     0.00000000
 O      1   2   0     1.197107114637   127.21613366     0.00000000
 C      1   2   3     1.550111450270   110.91967486   179.24743326
 C      4   1   2     1.562618971178   113.18736475   274.74126765
 C      5   4   1     1.501710111219   114.26916230   177.63973564
 C      6   5   4     1.496108581865   128.25136107    88.13963095
 C      7   6   5     1.572285048832   112.95091420   229.41049085
 C      8   7   6     1.565034225103   113.73148531   163.12928405
 C      9   8   7     1.563062189928   114.34141807   163.61322625
 F      4   1   2     1.354220204427   110.95726974    35.77767551
 F      4   1   2     1.349024956224   108.52094691   154.78800957
 F      5   4   1     1.354463544058   107.72379702   300.80850225
 F      5   4   1     1.356912818530   107.40881194    57.52436671
 F      6   5   4     1.321205870378   115.84217882   271.39943766
 F      7   6   5     1.351100161829   109.84927684   350.97464014
 F      7   6   5     1.364083851473   110.07866611   109.59460582
 F      8   7   6     1.349609121759   108.63490702    42.75076220
 F      8   7   6     1.348431413802   108.53384302   285.08160357
 F      9   8   7     1.347794625352   109.78556600    42.74329613
 F      9   8   7     1.346371336690   108.60346731   283.82929678
 F     10   9   8     1.335043160211   110.64566030    50.45722296
 F     10   9   8     1.334805796437   108.71719489   169.87501755
 F     10   9   8     1.332518272983   110.96520997   289.19180785
 H      2   1   3     0.978058446782   109.44333292   359.61591365

---------------------------
INTERNAL COORDINATES (A.U.)
---------------------------
 C      0   0   0     0.000000000000     0.00000000     0.00000000
 O      1   0   0     2.503392836869     0.00000000     0.00000000
 O      1   2   0     2.262204599632   127.21613366     0.00000000
 C      1   2   3     2.929286118066   110.91967486   179.24743326
 C      4   1   2     2.952921907197   113.18736475   274.74126765
 C      5   4   1     2.837820842743   114.26916230   177.63973564
 C      6   5   4     2.827235486334   128.25136107    88.13963095
 C      7   6   5     2.971188146752   112.95091420   229.41049085
 C      8   7   6     2.957486075659   113.73148531   163.12928405
 C      9   8   7     2.953759469250   114.34141807   163.61322625
 F      4   1   2     2.559105311390   110.95726974    35.77767551
 F      4   1   2     2.549287715089   108.52094691   154.78800957
 F      5   4   1     2.559565156649   107.72379702   300.80850225
 F      5   4   1     2.564193614628   107.40881194    57.52436671
 F      6   5   4     2.496717261544   115.84217882   271.39943766
 F      7   6   5     2.553209285353   109.84927684   350.97464014
 F      7   6   5     2.577744902989   110.07866611   109.59460582
 F      8   7   6     2.550391627966   108.63490702    42.75076220
 F      8   7   6     2.548166082463   108.53384302   285.08160357
 F      9   8   7     2.546962726687   109.78556600    42.74329613
 F      9   8   7     2.544273100906   108.60346731   283.82929678
 F     10   9   8     2.522865949764   110.64566030    50.45722296
 F     10   9   8     2.522417397236   108.71719489   169.87501755
 F     10   9   8     2.518094604384   110.96520997   289.19180785
 H      2   1   3     1.848262607386   109.44333292   359.61591365

---------------------
BASIS SET INFORMATION
---------------------
There are 4 groups of distinct atoms

 Group   1 Type C   : 11s6p2d1f contracted to 5s3p2d1f pattern {62111/411/11/1}
 Group   2 Type O   : 11s6p2d1f contracted to 5s3p2d1f pattern {62111/411/11/1}
 Group   3 Type F   : 11s6p2d1f contracted to 5s3p2d1f pattern {62111/411/11/1}
 Group   4 Type H   : 5s1p contracted to 3s1p pattern {311/1}

Atom   0C    basis set group =>   1
Atom   1O    basis set group =>   2
Atom   2O    basis set group =>   2
Atom   3C    basis set group =>   1
Atom   4C    basis set group =>   1
Atom   5C    basis set group =>   1
Atom   6C    basis set group =>   1
Atom   7C    basis set group =>   1
Atom   8C    basis set group =>   1
Atom   9C    basis set group =>   1
Atom  10F    basis set group =>   3
Atom  11F    basis set group =>   3
Atom  12F    basis set group =>   3
Atom  13F    basis set group =>   3
Atom  14F    basis set group =>   3
Atom  15F    basis set group =>   3
Atom  16F    basis set group =>   3
Atom  17F    basis set group =>   3
Atom  18F    basis set group =>   3
Atom  19F    basis set group =>   3
Atom  20F    basis set group =>   3
Atom  21F    basis set group =>   3
Atom  22F    basis set group =>   3
Atom  23F    basis set group =>   3
Atom  24H    basis set group =>   4
---------------------------------
AUXILIARY/J BASIS SET INFORMATION
---------------------------------
There are 4 groups of distinct atoms

 Group   1 Type C   : 12s5p4d2f1g contracted to 6s4p3d1f1g pattern {711111/2111/211/2/1}
 Group   2 Type O   : 12s5p4d2f1g contracted to 6s4p3d1f1g pattern {711111/2111/211/2/1}
 Group   3 Type F   : 12s5p4d2f1g contracted to 6s4p3d1f1g pattern {711111/2111/211/2/1}
 Group   4 Type H   : 5s2p1d contracted to 3s1p1d pattern {311/2/1}

Atom   0C    basis set group =>   1
Atom   1O    basis set group =>   2
Atom   2O    basis set group =>   2
Atom   3C    basis set group =>   1
Atom   4C    basis set group =>   1
Atom   5C    basis set group =>   1
Atom   6C    basis set group =>   1
Atom   7C    basis set group =>   1
Atom   8C    basis set group =>   1
Atom   9C    basis set group =>   1
Atom  10F    basis set group =>   3
Atom  11F    basis set group =>   3
Atom  12F    basis set group =>   3
Atom  13F    basis set group =>   3
Atom  14F    basis set group =>   3
Atom  15F    basis set group =>   3
Atom  16F    basis set group =>   3
Atom  17F    basis set group =>   3
Atom  18F    basis set group =>   3
Atom  19F    basis set group =>   3
Atom  20F    basis set group =>   3
Atom  21F    basis set group =>   3
Atom  22F    basis set group =>   3
Atom  23F    basis set group =>   3
Atom  24H    basis set group =>   4


           ************************************************************
           *        Program running with 20 parallel MPI-processes    *
           *              working on a common directory               *
           ************************************************************
------------------------------------------------------------------------------
                             ORCA STARTUP CALCULATIONS
                           -- RI-GTO INTEGRALS CHOSEN --
------------------------------------------------------------------------------
------------------------------------------------------------------------------
                   ___                                                        
                  /   \      - P O W E R E D   B Y -                         
                 /     \                                                     
                 |  |  |   _    _      __       _____    __    __             
                 |  |  |  | |  | |    /  \     |  _  \  |  |  /  |          
                  \  \/   | |  | |   /    \    | | | |  |  | /  /          
                 / \  \   | |__| |  /  /\  \   | |_| |  |  |/  /          
                |  |  |   |  __  | /  /__\  \  |    /   |      \           
                |  |  |   | |  | | |   __   |  |    \   |  |\   \          
                \     /   | |  | | |  |  |  |  | |\  \  |  | \   \       
                 \___/    |_|  |_| |__|  |__|  |_| \__\ |__|  \__/        
                                                                              
                      - O R C A' S   B I G   F R I E N D -                    
                                      &                                       
                       - I N T E G R A L  F E E D E R -                       
                                                                              
 v1 FN, 2020, v2 2021, v3 2022-2024                                           
------------------------------------------------------------------------------


----------------------
SHARK INTEGRAL PACKAGE
----------------------

Number of atoms                             ...     25
Number of basis functions                   ...    750
Number of shells                            ...    268
Maximum angular momentum                    ...      3
Integral batch strategy                     ... SHARK/LIBINT Hybrid
RI-J (if used) integral strategy            ... SPLIT-RIJ (Revised 2003 algorithm where possible)
Printlevel                                  ...      1
Contraction scheme used                     ... SEGMENTED contraction
Prescreening option                         ... SCHWARTZ
   Thresh                                   ... 2.500e-11
   Tcut                                     ... 2.500e-12
   Tpresel                                  ... 2.500e-12 
Coulomb Range Separation                    ... NOT USED
Exchange Range Separation                   ... NOT USED
Multipole approximations                    ... NOT USED
Finite Nucleus Model                        ... NOT USED
CABS basis                                  ... NOT available
Auxiliary Coulomb fitting basis             ... AVAILABLE
   # of basis functions in Aux-J            ...   1187
   # of shells in Aux-J                     ...    365
   Maximum angular momentum in Aux-J        ...      4
Auxiliary J/K fitting basis                 ... NOT available
Auxiliary Correlation fitting basis         ... NOT available
Auxiliary 'external' fitting basis          ... NOT available

Checking pre-screening integrals            ... done (  0.0 sec) Dimension = 268
Check shell pair data                       ... done (  0.0 sec)
Shell pair information
Shell pair cut-off parameter TPreSel        ...   2.5e-12
Total number of shell pairs                 ...     36046
Shell pairs after pre-screening             ...     22767
Total number of primitive shell pairs       ...    118872
Primitive shell pairs kept                  ...     48233
          la=0 lb=0:   4346 shell pairs
          la=1 lb=0:   6215 shell pairs
          la=1 lb=1:   2139 shell pairs
          la=2 lb=0:   3377 shell pairs
          la=2 lb=1:   2461 shell pairs
          la=2 lb=2:    701 shell pairs
          la=3 lb=0:   1548 shell pairs
          la=3 lb=1:   1195 shell pairs
          la=3 lb=2:    630 shell pairs
          la=3 lb=3:    155 shell pairs

Calculating one electron integrals          ... done (  0.0 sec)
Calculating RI/J V-Matrix + Cholesky decomp.... done (  0.1 sec)
Calculating Nuclear repulsion               ... done (  0.0 sec) ENN=   2675.775954506849 Eh

Diagonalization of the overlap matrix:
Smallest eigenvalue                        ... 5.918e-05
Time for diagonalization                   ...    0.094 sec
Threshold for overlap eigenvalues          ... 1.000e-07
Number of eigenvalues below threshold      ... 0
Time for construction of square roots      ...    0.045 sec
Total time needed                          ...    0.144 sec

-------------------
DFT GRID GENERATION
-------------------

General Integration Accuracy     IntAcc      ... 4.388
Radial Grid Type                 RadialGrid  ... OptM3 with GC (2021)
Angular Grid (max. ang.)         AngularGrid ... 4 (Lebedev-302)
Angular grid pruning method      GridPruning ... 4 (adaptive)
Weight generation scheme         WeightScheme... mBecke (2022)
Basis function cutoff            BFCut       ... 1.0000e-11
Integration weight cutoff        WCut        ... 1.0000e-14
Partially contracted basis set               ... off
Rotationally invariant grid construction     ... off
Angular grids for H and He will be reduced by one unit

Total number of grid points                  ...   148682
Total number of batches                      ...     2336
Average number of points per batch           ...       63
Average number of grid points per atom       ...     5947

--------------------
COSX GRID GENERATION
--------------------

GRIDX 1
-------
General Integration Accuracy     IntAcc      ... 3.816
Radial Grid Type                 RadialGrid  ... OptM3 with GC (2021)
Angular Grid (max. ang.)         AngularGrid ... 1 (Lebedev-50)
Angular grid pruning method      GridPruning ... 4 (adaptive)
Weight generation scheme         WeightScheme... mBecke (2022)
Basis function cutoff            BFCut       ... 1.0000e-11
Integration weight cutoff        WCut        ... 1.0000e-14
Partially contracted basis set               ... on
Rotationally invariant grid construction     ... off
Angular grids for H and He will be reduced by one unit

Total number of grid points                  ...    18700
Total number of batches                      ...      157
Average number of points per batch           ...      119
Average number of grid points per atom       ...      748
UseSFitting                                  ... on

GRIDX 2
-------
General Integration Accuracy     IntAcc      ... 4.020
Radial Grid Type                 RadialGrid  ... OptM3 with GC (2021)
Angular Grid (max. ang.)         AngularGrid ... 2 (Lebedev-110)
Angular grid pruning method      GridPruning ... 4 (adaptive)
Weight generation scheme         WeightScheme... mBecke (2022)
Basis function cutoff            BFCut       ... 1.0000e-11
Integration weight cutoff        WCut        ... 1.0000e-14
Partially contracted basis set               ... on
Rotationally invariant grid construction     ... off
Angular grids for H and He will be reduced by one unit

Total number of grid points                  ...    44007
Total number of batches                      ...      355
Average number of points per batch           ...      123
Average number of grid points per atom       ...     1760
UseSFitting                                  ... on

GRIDX 3
-------
General Integration Accuracy     IntAcc      ... 4.338
Radial Grid Type                 RadialGrid  ... OptM3 with GC (2021)
Angular Grid (max. ang.)         AngularGrid ... 3 (Lebedev-194)
Angular grid pruning method      GridPruning ... 4 (adaptive)
Weight generation scheme         WeightScheme... mBecke (2022)
Basis function cutoff            BFCut       ... 1.0000e-11
Integration weight cutoff        WCut        ... 1.0000e-14
Partially contracted basis set               ... on
Rotationally invariant grid construction     ... off
Angular grids for H and He will be reduced by one unit

Total number of grid points                  ...    97487
Total number of batches                      ...      772
Average number of points per batch           ...      126
Average number of grid points per atom       ...     3899
UseSFitting                                  ... on
Initializing property integral containers    ... done (  0.0 sec)

SHARK setup successfully completed in   2.9 seconds

Maximum memory used throughout the entire STARTUP-calculation: 57.9 MB


           ************************************************************
           *        Program running with 20 parallel MPI-processes    *
           *              working on a common directory               *
           ************************************************************
-------------------------------------------------------------------------------
                                 ORCA GUESS
                   Start orbitals & Density for SCF / CASSCF
-------------------------------------------------------------------------------

------------
SCF SETTINGS
------------
Hamiltonian:
 Density Functional     Method          .... DFT(GTOs)
 Exchange Functional    Exchange        .... B88
   X-Alpha parameter    XAlpha          ....  0.666667
   Becke's b parameter  XBeta           ....  0.004200
 Correlation Functional Correlation     .... LYP
 LDA part of GGA corr.  LDAOpt          .... VWN-5
 Gradients option       PostSCFGGA      .... off
 Hybrid DFT is turned on
   Fraction HF Exchange ScalHFX         ....  0.200000
   Scaling of DF-GGA-X  ScalDFX         ....  0.720000
   Scaling of DF-GGA-C  ScalDFC         ....  0.810000
   Scaling of DF-LDA-C  ScalLDAC        ....  1.000000
   Perturbative correction              ....  0.000000
   NL short-range parameter             ....  4.800000
 RI-approximation to the Coulomb term is turned on
   Number of AuxJ basis functions       .... 1187
   RIJ-COSX (HFX calculated with COS-X)).... on


General Settings:
 Integral files         IntName         .... rf_mecn_freq_B3L_C4_P_B
 Hartree-Fock type      HFTyp           .... UHF
 Total Charge           Charge          ....    0
 Multiplicity           Mult            ....    2
 Number of Electrons    NEL             ....  191
 Basis Dimension        Dim             ....  750
 Nuclear Repulsion      ENuc            ....   2675.7759545068 Eh

Convergence Acceleration:
 AO-DIIS                CNVDIIS         .... on
   Start iteration      DIISMaxIt       ....     0
   Startup error        DIISStart       ....  0.200000
   # of expansion vecs  DIISMaxEq       ....     5
   Bias factor          DIISBfac        ....   1.050
   Max. coefficient     DIISMaxC        ....  10.000
 MO-DIIS                CNVKDIIS        .... off
 Trust-Rad. Augm. Hess. CNVTRAH         .... auto
   Auto Start mean grad. ratio tolernc. ....  1.125000
   Auto Start start iteration           ....    50
   Auto Start num. interpolation iter.  ....    10
   Max. Number of Micro iterations      ....    24
   Max. Number of Macro iterations      .... Maxiter - #DIIS iter
   Number of Davidson start vectors     ....     2
   Converg. threshold    (grad. norm)   ....   1.000e-05
   Grad. Scal. Fac. for Micro threshold ....   0.100
   Minimum threshold for Micro iter.    ....   1.000e-02
   NR start threshold (gradient norm)   ....   1.000e-04
   Initial trust radius                 ....   0.400
   Minimum AH scaling param. (alpha)    ....   1.000
   Maximum AH scaling param. (alpha)    .... 1000.000
   Quad. conv. algorithm                .... NR
   White noise on init. David. guess    .... on
   Maximum white noise                  ....   0.010
   Pseudo random numbers                .... off
   Inactive MOs                         .... canonical
   Orbital update algorithm             .... Taylor
   Preconditioner                       .... Diag
   Full preconditioner red. dimension   ....   250
 SOSCF                  CNVSOSCF        .... on
   Start iteration      SOSCFMaxIt      ....   150
   Startup grad/error   SOSCFStart      ....  0.001000
   Hessian update       SOSCFHessUp     .... L-BFGS
 Level Shifting         CNVShift        .... on
   Level shift para.    LevelShift      ....    0.2500
   Turn off err/grad.   ShiftErr        ....    0.0000
 Zerner damping         CNVZerner       .... off
 Static damping         CNVDamp         .... on
   Fraction old density DampFac         ....    0.8500
   Max. Damping (<1)    DampMax         ....    0.9800
   Min. Damping (>=0)   DampMin         ....    0.0000
   Turn off err/grad.   DampErr         ....    0.0300

SCF Procedure:
 Maximum # iterations   MaxIter         ....  1500
 SCF integral mode      SCFMode         .... Direct
   Integral package                     .... SHARK and LIBINT hybrid scheme
 Reset frequency        DirectResetFreq ....    20
 Integral Threshold     Thresh          ....  2.500e-11 Eh
 Primitive CutOff       TCut            ....  2.500e-12 Eh

Convergence Tolerance:
 Convergence Check Mode ConvCheckMode   .... Total+1el-Energy
 Convergence forced     ConvForced      .... 0
 Energy Change          TolE            ....  1.000e-08 Eh
 1-El. energy change                    ....  1.000e-05 Eh
 Orbital Gradient       TolG            ....  1.000e-05
 Orbital Rotation angle TolX            ....  1.000e-05
 DIIS Error             TolErr          ....  5.000e-07

------------------------------
INITIAL GUESS: MODEL POTENTIAL
------------------------------
Loading Hartree-Fock densities                     ... done
Calculating cut-offs                               ... done
Initializing the effective Hamiltonian             ... done
Setting up the integral package (SHARK)            ... done
Starting the Coulomb interaction                   ... done (   0.1 sec)
Making the grid                                    ... done (   0.5 sec)
Mapping shells                                     ... done
Starting the XC term evaluation                    ... done (   0.1 sec)
  promolecular density results
     # of electrons  =    191.001280734
     EX              =   -198.637938108
     EC              =     -7.176921997
     EX+EC           =   -205.814860104
Transforming the Hamiltonian                       ... done (   0.0 sec)
Diagonalizing the Hamiltonian                      ... done (   0.1 sec)
Back transforming the eigenvectors                 ... done (   0.0 sec)
Now organizing SCF variables                       ... done
                      ------------------
                      INITIAL GUESS DONE (   1.1 sec)
                      ------------------
             **** ENERGY FILE WAS UPDATED (rf_mecn_freq_B3L_C4_P_B.en.tmp) ****
Finished Guess after   1.7 sec
Maximum memory used throughout the entire GUESS-calculation: 47.3 MB


           ************************************************************
           *        Program running with 20 parallel MPI-processes    *
           *              working on a common directory               *
           ************************************************************

-------------------------------------------------------------------------------------------
                                      ORCA LEAN-SCF
                              memory conserving SCF solver
-------------------------------------------------------------------------------------------

--------------------
CPCM SOLVATION MODEL
--------------------
CPCM parameters:
  Epsilon                                         ...      35.6880
  Refrac                                          ...       1.3442
  Rsolv                                           ...       1.3000
  Surface type                                    ... GAUSSIAN VDW
  Discretization scheme                           ... Constant charge density
    Threshold for H atoms                         ...       5.0000 (charges/Ang^2)
    Threshold for non-H atoms                     ...       5.0000 (charges/Ang^2)
  Epsilon function type                           ...         CPCM
Solvent:                                          ... ACETONITRILE
SMD-CDS solvent descriptors:
  Soln                                            ...       1.3442
  Soln25                                          ...       1.3416
  Sola                                            ...       0.0700
  Solb                                            ...       0.3200
  Solg                                            ...      41.2500
  Solc                                            ...       0.0000
  Solh                                            ...       0.0000
Radii:
  Scheme                                          ... Element-dependent radii
  Radius for C  used is    3.4960 Bohr (=   1.8500 Ang.)
  Radius for O  used is    4.0969 Bohr (=   2.1680 Ang.)
  Radius for F  used is    3.2692 Bohr (=   1.7300 Ang.)
  Radius for H  used is    2.2677 Bohr (=   1.2000 Ang.)
Calculating surface                               ...        done! (  0.0s)
Cavity surface points                             ...         2190
Cavity Volume                                     ...    2113.2358
Cavity Surface-area                               ...    1108.5600
Calculating surface distance matrix               ...        done! (  0.0s)
Performing Cholesky decomposition & store         ...        done! (  0.1s)
Overall time for CPCM initialization              ...                 0.1s

----------------------------------------D-I-I-S--------------------------------------------
Iteration    Energy (Eh)           Delta-E    RMSDP     MaxDP     DIISErr   Damp  Time(sec)
-------------------------------------------------------------------------------------------
               ***  Starting incremental Fock matrix formation  ***
    1    -1853.2302794181555328     0.00e+00  1.98e-04  1.40e-02  1.43e-01  0.850   6.2
Warning: op=1 Small HOMO/LUMO gap (   0.055) - skipping pre-diagonalization
         Will do a full diagonalization
    2    -1853.3745698174684549    -1.44e-01  1.92e-04  1.18e-02  9.57e-02  0.850   4.3
                               ***Turning on AO-DIIS***
    3    -1853.4525260923551286    -7.80e-02  8.84e-05  6.37e-03  5.49e-02  0.850   3.5
    4    -1853.4995699769492603    -4.70e-02  5.30e-05  3.41e-03  4.21e-02  0.850   3.4
    5    -1853.5331939034608695    -3.36e-02  4.09e-05  2.77e-03  3.60e-02  0.850   3.5
    6    -1853.5599548139648505    -2.68e-02  3.60e-05  2.96e-03  3.14e-02  0.850   3.3
    7    -1853.5822786571820870    -2.23e-02  3.32e-05  2.92e-03  2.67e-02  0.850   3.2
    8    -1853.6011282749491329    -1.88e-02  1.94e-04  1.75e-02  2.20e-02  0.000   3.1
    9    -1853.6988587464970806    -9.77e-02  1.77e-05  1.52e-03  3.78e-03  0.000   3.5
   10    -1853.6990715187380374    -2.13e-04  7.61e-06  6.15e-04  1.82e-03  0.000   3.1
                              *** Initializing SOSCF ***
---------------------------------------S-O-S-C-F--------------------------------------
Iteration    Energy (Eh)           Delta-E    RMSDP     MaxDP     MaxGrad    Time(sec)
--------------------------------------------------------------------------------------
   11    -1853.6990977987347833    -2.63e-05  3.94e-06  3.17e-04  5.35e-04     3.3
               *** Restarting incremental Fock matrix formation ***
   12    -1853.6991072695095681    -9.47e-06  3.52e-06  2.97e-04  2.29e-04     5.9
   13    -1853.6991080992424941    -8.30e-07  2.49e-06  2.10e-04  3.60e-04     4.1
   14    -1853.6991090033793625    -9.04e-07  1.42e-06  1.06e-04  1.19e-04     3.8
   15    -1853.6991091817039887    -1.78e-07  5.33e-07  4.58e-05  2.33e-05     4.0
   16    -1853.6991092167568240    -3.51e-08  2.38e-07  1.71e-05  1.38e-05     3.9
   17    -1853.6991092260718688    -9.32e-09  1.16e-07  1.02e-05  3.24e-06     3.8
                 **** Energy Check signals convergence ****

               *****************************************************
               *                     SUCCESS                       *
               *           SCF CONVERGED AFTER  17 CYCLES          *
               *****************************************************

Recomputing exchange energy using gridx3       ... done (    8.912 sec)
Old exchange energy                            :    -39.824465094 Eh
New exchange energy                            :    -39.824412968 Eh
Exchange energy change after final integration :      0.000052126 Eh
Total energy after final integration           :  -1853.699057100 Eh

SMD CDS free energy correction energy :                 3.27006     Kcal/mol
Total Energy after SMD CDS correction =             -1853.693845927 Eh
             **** ENERGY FILE WAS UPDATED (rf_mecn_freq_B3L_C4_P_B.en.tmp) ****

----------------
TOTAL SCF ENERGY
----------------

Total Energy       :      -1853.69384592679216 Eh          -50441.57395 eV

Components:
Nuclear Repulsion  :       2675.77595450684885 Eh           72811.56539 eV
Electronic Energy  :      -4529.46156775368763 Eh         -123252.91532 eV
One Electron Energy:      -7902.23235631294483 Eh         -215030.67436 eV
Two Electron Energy:       3372.77078855925674 Eh           91777.75905 eV
CPCM Dielectric    :         -0.01349597923277 Eh              -0.36724 eV
SMD CDS (Gcds)     :          0.00521117335769 Eh               0.14180 eV

Virial components:
Potential Energy   :      -3701.08178923553714 Eh         -100711.55556 eV
Kinetic Energy     :       1847.38794330874521 Eh           50269.98161 eV
Virial Ratio       :          2.00341341548801

DFT components:
N(Alpha)           :       96.000014799306 electrons
N(Beta)            :       95.000007002753 electrons
N(Total)           :      191.000021802059 electrons
E(X)               :     -158.703246567710 Eh       
E(C)               :       -8.381430486052 Eh       
E(XC)              :     -167.084677053762 Eh       

CPCM Solvation Model Properties:
Surface-charge          :         -0.00923387314134
Corrected charge        :         -0.00000000000000
Outlying charge corr.   :          0.00000472512471 Eh               0.00013 eV
Free-energy (cav+disp)  :          0.00521117335769 Eh               0.14180 eV

---------------
SCF CONVERGENCE
---------------

  Last Energy change         ...    9.3150e-09  Tolerance :   1.0000e-08
  Last MAX-Density change    ...    1.0247e-05  Tolerance :   1.0000e-07
  Last RMS-Density change    ...    1.1617e-07  Tolerance :   5.0000e-09
  Last DIIS Error            ...    5.3498e-04  Tolerance :   5.0000e-07
  Last Orbital Gradient      ...    3.2427e-06  Tolerance :   1.0000e-05
  Last Orbital Rotation      ...    8.8088e-06  Tolerance :   1.0000e-05


----------------------
UHF SPIN CONTAMINATION
----------------------

Warning: in a DFT calculation there is little theoretical justification to 
         calculate <S**2> as in Hartree-Fock theory. We will do it anyways
         but you should keep in mind that the values have only limited relevance

Expectation value of <S**2>     :     0.754093
Ideal value S*(S+1) for S=0.5   :     0.750000
Deviation                       :     0.004093

----------------
ORBITAL ENERGIES
----------------
                 SPIN UP ORBITALS
  NO   OCC          E(Eh)            E(eV) 
   0   1.0000     -24.759533      -673.7411 
   1   1.0000     -24.746351      -673.3825 
   2   1.0000     -24.745306      -673.3540 
   3   1.0000     -24.744945      -673.3442 
   4   1.0000     -24.744752      -673.3389 
   5   1.0000     -24.744570      -673.3340 
   6   1.0000     -24.744471      -673.3313 
   7   1.0000     -24.743368      -673.3013 
   8   1.0000     -24.741783      -673.2582 
   9   1.0000     -24.736306      -673.1091 
  10   1.0000     -24.735228      -673.0798 
  11   1.0000     -24.732939      -673.0175 
  12   1.0000     -24.732394      -673.0026 
  13   1.0000     -24.732314      -673.0005 
  14   1.0000     -19.205795      -522.6162 
  15   1.0000     -19.153116      -521.1828 
  16   1.0000     -10.462475      -284.6984 
  17   1.0000     -10.408491      -283.2294 
  18   1.0000     -10.408151      -283.2202 
  19   1.0000     -10.407991      -283.2158 
  20   1.0000     -10.403173      -283.0847 
  21   1.0000     -10.391428      -282.7651 
  22   1.0000     -10.344753      -281.4950 
  23   1.0000     -10.330106      -281.0965 
  24   1.0000      -1.354969       -36.8706 
  25   1.0000      -1.327863       -36.1330 
  26   1.0000      -1.316653       -35.8280 
  27   1.0000      -1.309841       -35.6426 
  28   1.0000      -1.304662       -35.5016 
  29   1.0000      -1.299623       -35.3645 
  30   1.0000      -1.294072       -35.2135 
  31   1.0000      -1.267993       -34.5039 
  32   1.0000      -1.261849       -34.3366 
  33   1.0000      -1.259395       -34.2699 
  34   1.0000      -1.251963       -34.0676 
  35   1.0000      -1.250737       -34.0343 
  36   1.0000      -1.245661       -33.8962 
  37   1.0000      -1.240286       -33.7499 
  38   1.0000      -1.145238       -31.1635 
  39   1.0000      -1.061020       -28.8718 
  40   1.0000      -0.860500       -23.4154 
  41   1.0000      -0.838089       -22.8056 
  42   1.0000      -0.810592       -22.0573 
  43   1.0000      -0.778242       -21.1770 
  44   1.0000      -0.739260       -20.1163 
  45   1.0000      -0.700568       -19.0634 
  46   1.0000      -0.680714       -18.5232 
  47   1.0000      -0.665190       -18.1007 
  48   1.0000      -0.651677       -17.7330 
  49   1.0000      -0.647415       -17.6171 
  50   1.0000      -0.639219       -17.3940 
  51   1.0000      -0.629263       -17.1231 
  52   1.0000      -0.628278       -17.0963 
  53   1.0000      -0.623403       -16.9637 
  54   1.0000      -0.614742       -16.7280 
  55   1.0000      -0.612120       -16.6566 
  56   1.0000      -0.611738       -16.6462 
  57   1.0000      -0.598889       -16.2966 
  58   1.0000      -0.596324       -16.2268 
  59   1.0000      -0.584044       -15.8926 
  60   1.0000      -0.580445       -15.7947 
  61   1.0000      -0.572270       -15.5723 
  62   1.0000      -0.538707       -14.6590 
  63   1.0000      -0.519034       -14.1236 
  64   1.0000      -0.517010       -14.0685 
  65   1.0000      -0.513109       -13.9624 
  66   1.0000      -0.506676       -13.7873 
  67   1.0000      -0.501813       -13.6550 
  68   1.0000      -0.500891       -13.6299 
  69   1.0000      -0.495748       -13.4900 
  70   1.0000      -0.493482       -13.4283 
  71   1.0000      -0.489207       -13.3120 
  72   1.0000      -0.485718       -13.2170 
  73   1.0000      -0.484461       -13.1829 
  74   1.0000      -0.478101       -13.0098 
  75   1.0000      -0.475475       -12.9383 
  76   1.0000      -0.470675       -12.8077 
  77   1.0000      -0.469420       -12.7736 
  78   1.0000      -0.466090       -12.6830 
  79   1.0000      -0.464974       -12.6526 
  80   1.0000      -0.461542       -12.5592 
  81   1.0000      -0.454654       -12.3718 
  82   1.0000      -0.452731       -12.3194 
  83   1.0000      -0.451601       -12.2887 
  84   1.0000      -0.447328       -12.1724 
  85   1.0000      -0.444689       -12.1006 
  86   1.0000      -0.442842       -12.0504 
  87   1.0000      -0.439760       -11.9665 
  88   1.0000      -0.438495       -11.9321 
  89   1.0000      -0.429325       -11.6825 
  90   1.0000      -0.413371       -11.2484 
  91   1.0000      -0.385965       -10.5026 
  92   1.0000      -0.362498        -9.8641 
  93   1.0000      -0.359265        -9.7761 
  94   1.0000      -0.320341        -8.7169 
  95   1.0000      -0.273646        -7.4463 
  96   0.0000      -0.044872        -1.2210 
  97   0.0000      -0.010613        -0.2888 
  98   0.0000       0.017558         0.4778 
  99   0.0000       0.031195         0.8488 
 100   0.0000       0.040836         1.1112 
 101   0.0000       0.070318         1.9135 
 102   0.0000       0.075628         2.0579 
 103   0.0000       0.096870         2.6360 
 104   0.0000       0.099620         2.7108 
 105   0.0000       0.110442         3.0053 
 106   0.0000       0.115942         3.1549 

                 SPIN DOWN ORBITALS
  NO   OCC          E(Eh)            E(eV) 
   0   1.0000     -24.755020      -673.6183 
   1   1.0000     -24.746352      -673.3825 
   2   1.0000     -24.745304      -673.3539 
   3   1.0000     -24.744847      -673.3415 
   4   1.0000     -24.744752      -673.3389 
   5   1.0000     -24.744506      -673.3322 
   6   1.0000     -24.744456      -673.3309 
   7   1.0000     -24.743362      -673.3011 
   8   1.0000     -24.741619      -673.2537 
   9   1.0000     -24.735803      -673.0954 
  10   1.0000     -24.734778      -673.0675 
  11   1.0000     -24.732371      -673.0020 
  12   1.0000     -24.732276      -672.9994 
  13   1.0000     -24.731547      -672.9796 
  14   1.0000     -19.205756      -522.6152 
  15   1.0000     -19.152933      -521.1778 
  16   1.0000     -10.462452      -284.6978 
  17   1.0000     -10.408882      -283.2401 
  18   1.0000     -10.408439      -283.2280 
  19   1.0000     -10.407654      -283.2067 
  20   1.0000     -10.404083      -283.1095 
  21   1.0000     -10.390699      -282.7453 
  22   1.0000     -10.344666      -281.4927 
  23   1.0000     -10.315721      -280.7050 
  24   1.0000      -1.354942       -36.8698 
  25   1.0000      -1.327083       -36.1118 
  26   1.0000      -1.314924       -35.7809 
  27   1.0000      -1.309599       -35.6360 
  28   1.0000      -1.303528       -35.4708 
  29   1.0000      -1.296965       -35.2922 
  30   1.0000      -1.287830       -35.0436 
  31   1.0000      -1.267922       -34.5019 
  32   1.0000      -1.261822       -34.3359 
  33   1.0000      -1.259122       -34.2625 
  34   1.0000      -1.251808       -34.0634 
  35   1.0000      -1.249903       -34.0116 
  36   1.0000      -1.243817       -33.8460 
  37   1.0000      -1.239778       -33.7361 
  38   1.0000      -1.145065       -31.1588 
  39   1.0000      -1.060747       -28.8644 
  40   1.0000      -0.849877       -23.1263 
  41   1.0000      -0.833505       -22.6808 
  42   1.0000      -0.808005       -21.9869 
  43   1.0000      -0.771897       -21.0044 
  44   1.0000      -0.737729       -20.0746 
  45   1.0000      -0.698179       -18.9984 
  46   1.0000      -0.676346       -18.4043 
  47   1.0000      -0.663582       -18.0570 
  48   1.0000      -0.650705       -17.7066 
  49   1.0000      -0.646343       -17.5879 
  50   1.0000      -0.639051       -17.3895 
  51   1.0000      -0.627183       -17.0665 
  52   1.0000      -0.626626       -17.0514 
  53   1.0000      -0.619698       -16.8628 
  54   1.0000      -0.613504       -16.6943 
  55   1.0000      -0.611308       -16.6345 
  56   1.0000      -0.609367       -16.5817 
  57   1.0000      -0.597162       -16.2496 
  58   1.0000      -0.595627       -16.2078 
  59   1.0000      -0.582713       -15.8564 
  60   1.0000      -0.578292       -15.7361 
  61   1.0000      -0.571388       -15.5483 
  62   1.0000      -0.518897       -14.1199 
  63   1.0000      -0.516865       -14.0646 
  64   1.0000      -0.515758       -14.0345 
  65   1.0000      -0.508928       -13.8486 
  66   1.0000      -0.503778       -13.7085 
  67   1.0000      -0.501077       -13.6350 
  68   1.0000      -0.500137       -13.6094 
  69   1.0000      -0.495142       -13.4735 
  70   1.0000      -0.491618       -13.3776 
  71   1.0000      -0.488744       -13.2994 
  72   1.0000      -0.484534       -13.1848 
  73   1.0000      -0.483361       -13.1529 
  74   1.0000      -0.477368       -12.9898 
  75   1.0000      -0.474485       -12.9114 
  76   1.0000      -0.469811       -12.7842 
  77   1.0000      -0.467100       -12.7104 
  78   1.0000      -0.465220       -12.6593 
  79   1.0000      -0.463718       -12.6184 
  80   1.0000      -0.459424       -12.5016 
  81   1.0000      -0.454553       -12.3690 
  82   1.0000      -0.452047       -12.3008 
  83   1.0000      -0.451268       -12.2796 
  84   1.0000      -0.446407       -12.1474 
  85   1.0000      -0.443912       -12.0795 
  86   1.0000      -0.442579       -12.0432 
  87   1.0000      -0.439133       -11.9494 
  88   1.0000      -0.437138       -11.8951 
  89   1.0000      -0.428149       -11.6505 
  90   1.0000      -0.411573       -11.1995 
  91   1.0000      -0.382897       -10.4191 
  92   1.0000      -0.360582        -9.8119 
  93   1.0000      -0.358501        -9.7553 
  94   1.0000      -0.318261        -8.6603 
  95   0.0000      -0.132944        -3.6176 
  96   0.0000      -0.040853        -1.1117 
  97   0.0000      -0.007982        -0.2172 
  98   0.0000       0.019973         0.5435 
  99   0.0000       0.032691         0.8896 
 100   0.0000       0.042517         1.1570 
 101   0.0000       0.073329         1.9954 
 102   0.0000       0.081583         2.2200 
 103   0.0000       0.098620         2.6836 
 104   0.0000       0.103026         2.8035 
 105   0.0000       0.116606         3.1730 
*Only the first 10 virtual orbitals were printed.

                    ********************************
                    * MULLIKEN POPULATION ANALYSIS *
                    ********************************

--------------------------------------------
MULLIKEN ATOMIC CHARGES AND SPIN POPULATIONS
--------------------------------------------
   0 C :    0.227902    0.002339
   1 O :   -0.351286    0.000963
   2 O :   -0.286363    0.006606
   3 C :    0.405176    0.029520
   4 C :    0.370483   -0.024081
   5 C :    0.104730    0.832876
   6 C :    0.372453    0.003180
   7 C :    0.319250    0.007444
   8 C :    0.324596    0.002216
   9 C :    0.476573    0.000888
  10 F :   -0.184436    0.000577
  11 F :   -0.181687    0.000761
  12 F :   -0.175067    0.008577
  13 F :   -0.176512    0.008521
  14 F :   -0.141777    0.087341
  15 F :   -0.175565    0.002993
  16 F :   -0.176580    0.025764
  17 F :   -0.173371    0.000934
  18 F :   -0.169317    0.001884
  19 F :   -0.165183   -0.000027
  20 F :   -0.163201    0.000145
  21 F :   -0.155218   -0.000018
  22 F :   -0.152649    0.000273
  23 F :   -0.152638    0.000022
  24 H :    0.379687    0.000300
Sum of atomic charges         :   -0.0000000
Sum of atomic spin populations:    1.0000000

-----------------------------------------------------
MULLIKEN REDUCED ORBITAL CHARGES AND SPIN POPULATIONS
-----------------------------------------------------
CHARGE
  0 C s       :     3.101315  s :     3.101315
      pz      :     0.771299  p :     2.389867
      px      :     0.862573
      py      :     0.755996
      dz2     :     0.060742  d :     0.256320
      dxz     :     0.049958
      dyz     :     0.035467
      dx2y2   :     0.064466
      dxy     :     0.045687
      f0      :     0.002133  f :     0.024597
      f+1     :     0.002927
      f-1     :     0.004120
      f+2     :     0.004793
      f-2     :     0.004063
      f+3     :     0.003206
      f-3     :     0.003354

  1 O s       :     3.766860  s :     3.766860
      pz      :     1.642480  p :     4.552239
      px      :     1.289902
      py      :     1.619857
      dz2     :     0.005797  d :     0.030425
      dxz     :     0.005297
      dyz     :     0.006234
      dx2y2   :     0.007648
      dxy     :     0.005450
      f0      :     0.000194  f :     0.001761
      f+1     :     0.000219
      f-1     :     0.000209
      f+2     :     0.000274
      f-2     :     0.000276
      f+3     :     0.000361
      f-3     :     0.000228

  2 O s       :     3.793118  s :     3.793118
      pz      :     1.365424  p :     4.461400
      px      :     1.715798
      py      :     1.380178
      dz2     :     0.008719  d :     0.029996
      dxz     :     0.004540
      dyz     :     0.006914
      dx2y2   :     0.005114
      dxy     :     0.004709
      f0      :     0.000255  f :     0.001849
      f+1     :     0.000160
      f-1     :     0.000411
      f+2     :     0.000325
      f-2     :     0.000316
      f+3     :     0.000188
      f-3     :     0.000194

  3 C s       :     3.078658  s :     3.078658
      pz      :     0.744046  p :     2.208421
      px      :     0.825983
      py      :     0.638392
      dz2     :     0.055620  d :     0.279964
      dxz     :     0.040944
      dyz     :     0.066310
      dx2y2   :     0.058547
      dxy     :     0.058542
      f0      :     0.004404  f :     0.027782
      f+1     :     0.003124
      f-1     :     0.003787
      f+2     :     0.005279
      f-2     :     0.003223
      f+3     :     0.004685
      f-3     :     0.003280

  4 C s       :     3.101122  s :     3.101122
      pz      :     0.765341  p :     2.206257
      px      :     0.780827
      py      :     0.660089
      dz2     :     0.056551  d :     0.294332
      dxz     :     0.049633
      dyz     :     0.068685
      dx2y2   :     0.054480
      dxy     :     0.064982
      f0      :     0.004200  f :     0.027806
      f+1     :     0.003253
      f-1     :     0.003732
      f+2     :     0.005382
      f-2     :     0.003163
      f+3     :     0.004701
      f-3     :     0.003374

  5 C s       :     3.250924  s :     3.250924
      pz      :     0.837673  p :     2.477310
      px      :     0.866828
      py      :     0.772809
      dz2     :     0.027750  d :     0.149404
      dxz     :     0.034469
      dyz     :     0.018263
      dx2y2   :     0.029171
      dxy     :     0.039752
      f0      :     0.001831  f :     0.017632
      f+1     :     0.001389
      f-1     :     0.003699
      f+2     :     0.002642
      f-2     :     0.002985
      f+3     :     0.002888
      f-3     :     0.002198

  6 C s       :     3.095176  s :     3.095176
      pz      :     0.630464  p :     2.214050
      px      :     0.855328
      py      :     0.728258
      dz2     :     0.071544  d :     0.290643
      dxz     :     0.067092
      dyz     :     0.051119
      dx2y2   :     0.042241
      dxy     :     0.058646
      f0      :     0.005313  f :     0.027678
      f+1     :     0.002789
      f-1     :     0.004589
      f+2     :     0.005703
      f-2     :     0.004676
      f+3     :     0.002180
      f-3     :     0.002429

  7 C s       :     3.154014  s :     3.154014
      pz      :     0.671980  p :     2.213663
      px      :     0.824663
      py      :     0.717020
      dz2     :     0.067715  d :     0.284977
      dxz     :     0.054721
      dyz     :     0.058244
      dx2y2   :     0.048419
      dxy     :     0.055878
      f0      :     0.004607  f :     0.028097
      f+1     :     0.002655
      f-1     :     0.005212
      f+2     :     0.005459
      f-2     :     0.004166
      f+3     :     0.002717
      f-3     :     0.003280

  8 C s       :     3.128386  s :     3.128386
      pz      :     0.662323  p :     2.239582
      px      :     0.882245
      py      :     0.695014
      dz2     :     0.059295  d :     0.279335
      dxz     :     0.055112
      dyz     :     0.064836
      dx2y2   :     0.037957
      dxy     :     0.062135
      f0      :     0.004732  f :     0.028101
      f+1     :     0.002924
      f-1     :     0.006677
      f+2     :     0.003798
      f-2     :     0.003434
      f+3     :     0.003061
      f-3     :     0.003474

  9 C s       :     3.024996  s :     3.024996
      pz      :     0.627268  p :     2.113142
      px      :     0.799979
      py      :     0.685895
      dz2     :     0.077647  d :     0.344889
      dxz     :     0.057789
      dyz     :     0.081790
      dx2y2   :     0.060550
      dxy     :     0.067114
      f0      :     0.007284  f :     0.040400
      f+1     :     0.004906
      f-1     :     0.006602
      f+2     :     0.007323
      f-2     :     0.005487
      f+3     :     0.004565
      f-3     :     0.004234

 10 F s       :     3.915902  s :     3.915902
      pz      :     1.884207  p :     5.251808
      px      :     1.888407
      py      :     1.479194
      dz2     :     0.002106  d :     0.016031
      dxz     :     0.000371
      dyz     :     0.003772
      dx2y2   :     0.005962
      dxy     :     0.003820
      f0      :     0.000067  f :     0.000696
      f+1     :     0.000011
      f-1     :     0.000122
      f+2     :     0.000109
      f-2     :     0.000031
      f+3     :     0.000157
      f-3     :     0.000200

 11 F s       :     3.917308  s :     3.917308
      pz      :     1.626847  p :     5.247399
      px      :     1.759936
      py      :     1.860616
      dz2     :     0.004394  d :     0.016267
      dxz     :     0.005604
      dyz     :     0.003026
      dx2y2   :     0.001584
      dxy     :     0.001658
      f0      :     0.000110  f :     0.000713
      f+1     :     0.000210
      f-1     :     0.000087
      f+2     :     0.000116
      f-2     :     0.000135
      f+3     :     0.000024
      f-3     :     0.000030

 12 F s       :     3.916590  s :     3.916590
      pz      :     1.882157  p :     5.241783
      px      :     1.889861
      py      :     1.469765
      dz2     :     0.002125  d :     0.016002
      dxz     :     0.000397
      dyz     :     0.003854
      dx2y2   :     0.006066
      dxy     :     0.003561
      f0      :     0.000069  f :     0.000692
      f+1     :     0.000010
      f-1     :     0.000124
      f+2     :     0.000116
      f-2     :     0.000028
      f+3     :     0.000143
      f-3     :     0.000202

 13 F s       :     3.915889  s :     3.915889
      pz      :     1.637374  p :     5.243979
      px      :     1.740684
      py      :     1.865920
      dz2     :     0.004047  d :     0.015955
      dxz     :     0.005742
      dyz     :     0.002712
      dx2y2   :     0.001761
      dxy     :     0.001693
      f0      :     0.000097  f :     0.000689
      f+1     :     0.000209
      f-1     :     0.000072
      f+2     :     0.000122
      f-2     :     0.000131
      f+3     :     0.000027
      f-3     :     0.000031

 14 F s       :     3.919356  s :     3.919356
      pz      :     1.685112  p :     5.203487
      px      :     1.897138
      py      :     1.621237
      dz2     :     0.003953  d :     0.018167
      dxz     :     0.001942
      dyz     :     0.006300
      dx2y2   :     0.003469
      dxy     :     0.002503
      f0      :     0.000086  f :     0.000767
      f+1     :     0.000022
      f-1     :     0.000214
      f+2     :     0.000191
      f-2     :     0.000121
      f+3     :     0.000064
      f-3     :     0.000070

 15 F s       :     3.921144  s :     3.921144
      pz      :     1.626307  p :     5.237336
      px      :     1.883838
      py      :     1.727191
      dz2     :     0.003833  d :     0.016386
      dxz     :     0.002718
      dyz     :     0.005968
      dx2y2   :     0.001777
      dxy     :     0.002091
      f0      :     0.000089  f :     0.000699
      f+1     :     0.000068
      f-1     :     0.000225
      f+2     :     0.000125
      f-2     :     0.000133
      f+3     :     0.000035
      f-3     :     0.000025

 16 F s       :     3.914975  s :     3.914975
      pz      :     1.666645  p :     5.245346
      px      :     1.841622
      py      :     1.737079
      dz2     :     0.003127  d :     0.015587
      dxz     :     0.003203
      dyz     :     0.005201
      dx2y2   :     0.001703
      dxy     :     0.002353
      f0      :     0.000073  f :     0.000672
      f+1     :     0.000090
      f-1     :     0.000164
      f+2     :     0.000104
      f-2     :     0.000166
      f+3     :     0.000040
      f-3     :     0.000035

 17 F s       :     3.920270  s :     3.920270
      pz      :     1.775528  p :     5.235871
      px      :     1.824334
      py      :     1.636008
      dz2     :     0.002218  d :     0.016520
      dxz     :     0.002244
      dyz     :     0.004965
      dx2y2   :     0.003053
      dxy     :     0.004040
      f0      :     0.000076  f :     0.000710
      f+1     :     0.000041
      f-1     :     0.000110
      f+2     :     0.000116
      f-2     :     0.000176
      f+3     :     0.000112
      f-3     :     0.000080

 18 F s       :     3.916887  s :     3.916887
      pz      :     1.598502  p :     5.235171
      px      :     1.819760
      py      :     1.816909
      dz2     :     0.004704  d :     0.016549
      dxz     :     0.004648
      dyz     :     0.004232
      dx2y2   :     0.001216
      dxy     :     0.001750
      f0      :     0.000114  f :     0.000710
      f+1     :     0.000173
      f-1     :     0.000155
      f+2     :     0.000085
      f-2     :     0.000143
      f+3     :     0.000018
      f-3     :     0.000022

 19 F s       :     3.915794  s :     3.915794
      pz      :     1.831017  p :     5.232122
      px      :     1.878825
      py      :     1.522281
      dz2     :     0.002046  d :     0.016553
      dxz     :     0.000906
      dyz     :     0.004788
      dx2y2   :     0.004816
      dxy     :     0.003997
      f0      :     0.000079  f :     0.000713
      f+1     :     0.000013
      f-1     :     0.000109
      f+2     :     0.000147
      f-2     :     0.000084
      f+3     :     0.000147
      f-3     :     0.000133

 20 F s       :     3.913974  s :     3.913974
      pz      :     1.508647  p :     5.231875
      px      :     1.841774
      py      :     1.881455
      dz2     :     0.006909  d :     0.016628
      dxz     :     0.005189
      dyz     :     0.003127
      dx2y2   :     0.000674
      dxy     :     0.000729
      f0      :     0.000228  f :     0.000724
      f+1     :     0.000245
      f-1     :     0.000119
      f+2     :     0.000060
      f-2     :     0.000061
      f+3     :     0.000005
      f-3     :     0.000006

 21 F s       :     3.912322  s :     3.912322
      pz      :     1.859912  p :     5.225494
      px      :     1.879087
      py      :     1.486496
      dz2     :     0.002177  d :     0.016645
      dxz     :     0.000594
      dyz     :     0.004111
      dx2y2   :     0.005729
      dxy     :     0.004034
      f0      :     0.000077  f :     0.000757
      f+1     :     0.000013
      f-1     :     0.000128
      f+2     :     0.000128
      f-2     :     0.000056
      f+3     :     0.000176
      f-3     :     0.000181

 22 F s       :     3.911354  s :     3.911354
      pz      :     1.669659  p :     5.223833
      px      :     1.737500
      py      :     1.816674
      dz2     :     0.003165  d :     0.016697
      dxz     :     0.005305
      dyz     :     0.003587
      dx2y2   :     0.002057
      dxy     :     0.002582
      f0      :     0.000091  f :     0.000766
      f+1     :     0.000160
      f-1     :     0.000102
      f+2     :     0.000116
      f-2     :     0.000198
      f+3     :     0.000049
      f-3     :     0.000049

 23 F s       :     3.910914  s :     3.910914
      pz      :     1.561225  p :     5.224162
      px      :     1.772633
      py      :     1.890304
      dz2     :     0.005611  d :     0.016793
      dxz     :     0.006222
      dyz     :     0.002601
      dx2y2   :     0.001328
      dxy     :     0.001032
      f0      :     0.000166  f :     0.000769
      f+1     :     0.000294
      f-1     :     0.000080
      f+2     :     0.000117
      f-2     :     0.000084
      f+3     :     0.000015
      f-3     :     0.000013

 24 H s       :     0.577151  s :     0.577151
      pz      :     0.011481  p :     0.043161
      px      :     0.020751
      py      :     0.010930


SPIN
  0 C s       :     0.001491  s :     0.001491
      pz      :    -0.001523  p :     0.000223
      px      :     0.001283
      py      :     0.000463
      dz2     :     0.000059  d :     0.000580
      dxz     :     0.000086
      dyz     :    -0.000011
      dx2y2   :    -0.000025
      dxy     :     0.000472
      f0      :     0.000012  f :     0.000046
      f+1     :     0.000012
      f-1     :     0.000009
      f+2     :     0.000008
      f-2     :    -0.000001
      f+3     :    -0.000004
      f-3     :     0.000008

  1 O s       :    -0.000007  s :    -0.000007
      pz      :     0.001017  p :     0.000938
      px      :     0.000195
      py      :    -0.000275
      dz2     :     0.000009  d :     0.000032
      dxz     :     0.000010
      dyz     :     0.000001
      dx2y2   :     0.000012
      dxy     :    -0.000000
      f0      :    -0.000000  f :     0.000000
      f+1     :    -0.000000
      f-1     :     0.000000
      f+2     :     0.000000
      f-2     :     0.000000
      f+3     :     0.000000
      f-3     :     0.000000

  2 O s       :     0.000268  s :     0.000268
      pz      :     0.002205  p :     0.006365
      px      :     0.002573
      py      :     0.001587
      dz2     :    -0.000018  d :    -0.000023
      dxz     :     0.000001
      dyz     :    -0.000003
      dx2y2   :     0.000005
      dxy     :    -0.000009
      f0      :    -0.000001  f :    -0.000003
      f+1     :    -0.000001
      f-1     :    -0.000002
      f+2     :    -0.000001
      f-2     :    -0.000000
      f+3     :     0.000001
      f-3     :     0.000001

  3 C s       :     0.000118  s :     0.000118
      pz      :     0.014950  p :     0.025707
      px      :     0.003950
      py      :     0.006807
      dz2     :     0.000148  d :     0.003700
      dxz     :     0.001773
      dyz     :     0.000129
      dx2y2   :     0.001564
      dxy     :     0.000087
      f0      :    -0.000005  f :    -0.000005
      f+1     :    -0.000014
      f-1     :     0.000010
      f+2     :     0.000018
      f-2     :    -0.000005
      f+3     :    -0.000006
      f-3     :    -0.000003

  4 C s       :    -0.014519  s :    -0.014519
      pz      :    -0.010921  p :    -0.033437
      px      :    -0.019550
      py      :    -0.002967
      dz2     :     0.002128  d :     0.022572
      dxz     :     0.013520
      dyz     :     0.001416
      dx2y2   :    -0.000276
      dxy     :     0.005784
      f0      :     0.000170  f :     0.001303
      f+1     :     0.000238
      f-1     :     0.000019
      f+2     :     0.000262
      f-2     :     0.000018
      f+3     :     0.000010
      f-3     :     0.000585

  5 C s       :     0.044684  s :     0.044684
      pz      :     0.426610  p :     0.785870
      px      :     0.034507
      py      :     0.324754
      dz2     :     0.001412  d :     0.004209
      dxz     :     0.001294
      dyz     :    -0.000354
      dx2y2   :     0.000396
      dxy     :     0.001461
      f0      :    -0.000326  f :    -0.001887
      f+1     :    -0.000165
      f-1     :    -0.000573
      f+2     :    -0.000316
      f-2     :    -0.000356
      f+3     :    -0.000127
      f-3     :    -0.000025

  6 C s       :    -0.012392  s :    -0.012392
      pz      :     0.006527  p :    -0.004996
      px      :    -0.017684
      py      :     0.006161
      dz2     :     0.000056  d :     0.019160
      dxz     :     0.008622
      dyz     :     0.001116
      dx2y2   :     0.003564
      dxy     :     0.005802
      f0      :     0.000100  f :     0.001408
      f+1     :     0.000470
      f-1     :     0.000215
      f+2     :     0.000270
      f-2     :     0.000036
      f+3     :     0.000257
      f-3     :     0.000059

  7 C s       :    -0.001016  s :    -0.001016
      pz      :     0.003626  p :     0.007775
      px      :    -0.003518
      py      :     0.007668
      dz2     :    -0.000096  d :     0.000640
      dxz     :     0.000231
      dyz     :     0.000101
      dx2y2   :     0.000378
      dxy     :     0.000026
      f0      :     0.000006  f :     0.000045
      f+1     :     0.000011
      f-1     :    -0.000010
      f+2     :     0.000002
      f-2     :     0.000000
      f+3     :     0.000029
      f-3     :     0.000006

  8 C s       :    -0.000119  s :    -0.000119
      pz      :     0.000552  p :     0.001941
      px      :     0.000491
      py      :     0.000898
      dz2     :    -0.000002  d :     0.000376
      dxz     :     0.000113
      dyz     :     0.000004
      dx2y2   :     0.000228
      dxy     :     0.000032
      f0      :     0.000001  f :     0.000018
      f+1     :     0.000003
      f-1     :    -0.000000
      f+2     :     0.000007
      f-2     :     0.000003
      f+3     :     0.000006
      f-3     :    -0.000001

  9 C s       :     0.000421  s :     0.000421
      pz      :    -0.000005  p :     0.000438
      px      :     0.000092
      py      :     0.000350
      dz2     :     0.000001  d :     0.000022
      dxz     :     0.000010
      dyz     :    -0.000003
      dx2y2   :    -0.000009
      dxy     :     0.000024
      f0      :    -0.000000  f :     0.000006
      f+1     :    -0.000001
      f-1     :     0.000001
      f+2     :     0.000001
      f-2     :    -0.000000
      f+3     :     0.000005
      f-3     :     0.000000

 10 F s       :     0.000313  s :     0.000313
      pz      :     0.000855  p :     0.000187
      px      :    -0.000108
      py      :    -0.000560
      dz2     :     0.000002  d :     0.000073
      dxz     :     0.000026
      dyz     :     0.000019
      dx2y2   :     0.000028
      dxy     :    -0.000002
      f0      :     0.000000  f :     0.000003
      f+1     :    -0.000000
      f-1     :     0.000000
      f+2     :     0.000000
      f-2     :     0.000001
      f+3     :    -0.000000
      f-3     :     0.000002

 11 F s       :     0.000184  s :     0.000184
      pz      :    -0.000356  p :     0.000495
      px      :    -0.000228
      py      :     0.001079
      dz2     :     0.000023  d :     0.000079
      dxz     :     0.000015
      dyz     :     0.000004
      dx2y2   :     0.000019
      dxy     :     0.000018
      f0      :     0.000001  f :     0.000004
      f+1     :     0.000002
      f-1     :     0.000000
      f+2     :     0.000000
      f-2     :     0.000000
      f+3     :    -0.000000
      f-3     :     0.000000

 12 F s       :    -0.000271  s :    -0.000271
      pz      :     0.002624  p :     0.008828
      px      :     0.000332
      py      :     0.005872
      dz2     :     0.000003  d :     0.000017
      dxz     :     0.000052
      dyz     :    -0.000017
      dx2y2   :    -0.000012
      dxy     :    -0.000009
      f0      :    -0.000000  f :     0.000004
      f+1     :     0.000000
      f-1     :     0.000000
      f+2     :     0.000001
      f-2     :     0.000001
      f+3     :     0.000001
      f-3     :     0.000000

 13 F s       :     0.000038  s :     0.000038
      pz      :     0.002644  p :     0.008506
      px      :     0.003984
      py      :     0.001878
      dz2     :    -0.000027  d :    -0.000026
      dxz     :     0.000003
      dyz     :    -0.000006
      dx2y2   :     0.000001
      dxy     :     0.000002
      f0      :     0.000000  f :     0.000004
      f+1     :     0.000001
      f-1     :     0.000000
      f+2     :     0.000001
      f-2     :     0.000000
      f+3     :     0.000000
      f-3     :     0.000001

 14 F s       :     0.003498  s :     0.003498
      pz      :     0.048553  p :     0.082185
      px      :     0.001119
      py      :     0.032512
      dz2     :     0.001022  d :     0.001625
      dxz     :     0.000026
      dyz     :     0.000197
      dx2y2   :     0.000308
[...]
 11:     57.53   0.000086    0.43  0.000465  (-0.003151 -0.020821  0.004647)
 12:     60.65   0.000414    2.09  0.002131  (-0.000943 -0.020915  0.041143)
 13:     72.26   0.000044    0.22  0.000192  ( 0.003323  0.011709  0.006628)
 14:     98.96   0.000133    0.67  0.000420  (-0.009409  0.017343  0.005529)
 15:    128.91   0.000592    2.99  0.001433  (-0.022797  0.001857 -0.030156)
 16:    146.57   0.000060    0.30  0.000127  ( 0.009290 -0.001783  0.006160)
 17:    183.11   0.000595    3.00  0.001013  ( 0.012729 -0.003303  0.028989)
 18:    186.23   0.000907    4.58  0.001519  (-0.021729 -0.001621 -0.032320)
 19:    205.78   0.001185    5.99  0.001796  ( 0.022012 -0.028737  0.022047)
 20:    212.31   0.000093    0.47  0.000136  (-0.002383  0.011336 -0.001382)
 21:    215.11   0.000425    2.15  0.000616  (-0.007926  0.001344  0.023480)
 22:    237.19   0.000046    0.23  0.000060  ( 0.005775 -0.004813  0.001980)
 23:    243.46   0.000009    0.05  0.000011  (-0.001581  0.001331 -0.002677)
 24:    257.57   0.000428    2.16  0.000518  (-0.020184 -0.003379 -0.009971)
 25:    282.13   0.001671    8.44  0.001848  (-0.038878  0.007658  0.016663)
 26:    285.10   0.000159    0.80  0.000174  (-0.007818  0.004535  0.009623)
 27:    308.38   0.000014    0.07  0.000014  ( 0.002338 -0.002676  0.001317)
 28:    331.96   0.000146    0.74  0.000137  (-0.009315 -0.001164 -0.006982)
 29:    340.54   0.000190    0.96  0.000174  (-0.005582 -0.004786 -0.010951)
 30:    347.95   0.000129    0.65  0.000116  (-0.007658  0.001384  0.007433)
 31:    357.55   0.000053    0.27  0.000046  ( 0.001422  0.001420  0.006507)
 32:    372.36   0.000097    0.49  0.000081  ( 0.008718  0.000742  0.002217)
 33:    373.27   0.000391    1.98  0.000327  ( 0.011512  0.012467  0.006236)
 34:    406.96   0.000233    1.18  0.000178  (-0.006374  0.010600 -0.005042)
 35:    419.35   0.000604    3.05  0.000450  (-0.006057  0.017447  0.010423)
 36:    456.61   0.001650    8.34  0.001128  (-0.027249 -0.011361  0.016000)
 37:    499.29   0.003139   15.86  0.001962  ( 0.038900  0.014130 -0.015781)
 38:    517.72   0.005947   30.05  0.003584  (-0.017234 -0.032736  0.047072)
 39:    527.09   0.004938   24.96  0.002924  ( 0.036869 -0.037609 -0.012247)
 40:    554.76   0.001065    5.38  0.000599  (-0.008368  0.012039 -0.019601)
 41:    566.47   0.013585   68.65  0.007484  ( 0.070128  0.021066 -0.046068)
 42:    574.57   0.005827   29.45  0.003165  ( 0.031556  0.045769 -0.008618)
 43:    590.90   0.005650   28.55  0.002984  (-0.025614 -0.030644  0.037262)
 44:    600.61   0.013699   69.23  0.007117  ( 0.050098 -0.050266  0.045618)
 45:    620.01   0.016652   84.15  0.008381  (-0.076488  0.034400 -0.036705)
 46:    654.62   0.016087   81.30  0.007669  (-0.056764  0.054260 -0.038764)
 47:    658.12   0.016499   83.38  0.007823  (-0.086270  0.019440  0.001724)
 48:    697.95   0.015911   80.41  0.007114  ( 0.071040  0.022787 -0.039348)
 49:    714.18   0.015832   80.01  0.006918  (-0.068142 -0.016351  0.044804)
 50:    760.92   0.001368    6.91  0.000561  (-0.008673 -0.015956  0.015209)
 51:    771.27   0.013310   67.26  0.005385  ( 0.059608  0.012811 -0.040845)
 52:    872.80   0.015085   76.23  0.005394  (-0.004525 -0.014370  0.071879)
 53:    985.48   0.004647   23.48  0.001471  (-0.033336  0.003868 -0.018578)
 54:   1049.05   0.043193  218.28  0.012849  ( 0.082145 -0.060261  0.049695)
 55:   1102.41   0.053933  272.56  0.015267  ( 0.035398  0.106456 -0.051780)
 56:   1119.71   0.002948   14.90  0.000822  (-0.019954 -0.019739 -0.005816)
 57:   1123.23   0.060115  303.79  0.016701  ( 0.061475 -0.055682 -0.099105)
 58:   1128.35   0.053356  269.64  0.014756  (-0.087328 -0.083654  0.011493)
 59:   1141.33   0.111604  564.00  0.030515  ( 0.056281 -0.158030 -0.048721)
 60:   1143.84   0.046275  233.85  0.012625  ( 0.040596 -0.012481  0.104024)
 61:   1148.63   0.003166   16.00  0.000860  (-0.026836 -0.009189 -0.007457)
 62:   1159.60   0.097940  494.95  0.026357  (-0.058612  0.038682 -0.146374)
 63:   1168.35   0.132841  671.32  0.035482  ( 0.013373 -0.160488 -0.097705)
 64:   1173.63   0.014727   74.42  0.003916  (-0.040333  0.040309  0.025773)
 65:   1185.02   0.059611  301.25  0.015698  ( 0.043394 -0.030726  0.113449)
 66:   1206.11   0.005011   25.32  0.001296  (-0.030462  0.008292  0.017313)
 67:   1217.46   0.002182   11.02  0.000559  (-0.007886  0.007492 -0.020997)
 68:   1256.18   0.003942   19.92  0.000979  ( 0.030279 -0.002764  0.007397)
 69:   1319.36   0.026901  135.95  0.006363  (-0.066907  0.008980  0.042492)
 70:   1325.48   0.016683   84.31  0.003928  ( 0.058524 -0.017866 -0.013545)
 71:   1378.89   0.018575   93.87  0.004204  ( 0.057255 -0.001989  0.030360)
 72:   1402.12   0.015138   76.50  0.003369  (-0.030597  0.039369  0.029718)
 73:   1821.53   0.095142  480.81  0.016300  (-0.012913 -0.086435 -0.093070)
 74:   3609.21   0.052006  262.82  0.004497  ( 0.066702 -0.006887  0.000152)

* The epsilon (eps) is given for a Dirac delta lineshape.
** The dipole moment derivative (T) already includes vibrational overlap.

The first frequency considered to be a vibration is 6
The total number of vibrations considered is 69


--------------------------
THERMOCHEMISTRY AT 298.15K
--------------------------

Temperature         ...   298.15 K
Pressure            ...     1.00 atm
Total Mass          ...   395.07 AMU
Quasi RRHO          ...     True
Cut-Off Frequency   ...     1.00 cm^-1

Throughout the following assumptions are being made:
  (1) The electronic state is orbitally nondegenerate
      but the spin degeneracy is treated
  (2) There are no thermally accessible electronically excited states
  (3) Hindered rotations indicated by low frequency modes are not
      treated as such but are treated as vibrations and this may
      cause some error
  (4) All equations used are the standard statistical mechanics
      equations for an ideal gas
  (5) All vibrations are strictly harmonic

freq.      18.40  E(vib)   ...       0.57 
freq.      25.71  E(vib)   ...       0.56 
freq.      29.08  E(vib)   ...       0.55 
freq.      37.90  E(vib)   ...       0.54 
freq.      48.56  E(vib)   ...       0.53 
freq.      57.53  E(vib)   ...       0.51 
freq.      60.65  E(vib)   ...       0.51 
freq.      72.26  E(vib)   ...       0.50 
freq.      98.96  E(vib)   ...       0.46 
freq.     128.91  E(vib)   ...       0.43 
freq.     146.57  E(vib)   ...       0.41 
freq.     183.11  E(vib)   ...       0.37 
freq.     186.23  E(vib)   ...       0.37 
freq.     205.78  E(vib)   ...       0.35 
freq.     212.31  E(vib)   ...       0.34 
freq.     215.11  E(vib)   ...       0.34 
freq.     237.19  E(vib)   ...       0.32 
freq.     243.46  E(vib)   ...       0.31 
freq.     257.57  E(vib)   ...       0.30 
freq.     282.13  E(vib)   ...       0.28 
freq.     285.10  E(vib)   ...       0.28 
freq.     308.38  E(vib)   ...       0.26 
freq.     331.96  E(vib)   ...       0.24 
freq.     340.54  E(vib)   ...       0.23 
freq.     347.95  E(vib)   ...       0.23 
freq.     357.55  E(vib)   ...       0.22 
freq.     372.36  E(vib)   ...       0.21 
freq.     373.27  E(vib)   ...       0.21 
freq.     406.96  E(vib)   ...       0.19 
freq.     419.35  E(vib)   ...       0.18 
freq.     456.61  E(vib)   ...       0.16 
freq.     499.29  E(vib)   ...       0.14 
freq.     517.72  E(vib)   ...       0.13 
freq.     527.09  E(vib)   ...       0.13 
freq.     554.76  E(vib)   ...       0.12 
freq.     566.47  E(vib)   ...       0.11 
freq.     574.57  E(vib)   ...       0.11 
freq.     590.90  E(vib)   ...       0.10 
freq.     600.61  E(vib)   ...       0.10 
freq.     620.01  E(vib)   ...       0.09 
freq.     654.62  E(vib)   ...       0.08 
freq.     658.12  E(vib)   ...       0.08 
freq.     697.95  E(vib)   ...       0.07 
freq.     714.18  E(vib)   ...       0.07 
freq.     760.92  E(vib)   ...       0.06 
freq.     771.27  E(vib)   ...       0.05 
freq.     872.80  E(vib)   ...       0.04 
freq.     985.48  E(vib)   ...       0.02 
freq.    1049.05  E(vib)   ...       0.02 
freq.    1102.41  E(vib)   ...       0.02 
freq.    1119.71  E(vib)   ...       0.01 
freq.    1123.23  E(vib)   ...       0.01 
freq.    1128.35  E(vib)   ...       0.01 
freq.    1141.33  E(vib)   ...       0.01 
freq.    1143.84  E(vib)   ...       0.01 
freq.    1148.63  E(vib)   ...       0.01 
freq.    1159.60  E(vib)   ...       0.01 
freq.    1168.35  E(vib)   ...       0.01 
freq.    1173.63  E(vib)   ...       0.01 
freq.    1185.02  E(vib)   ...       0.01 
freq.    1206.11  E(vib)   ...       0.01 
freq.    1217.46  E(vib)   ...       0.01 
freq.    1256.18  E(vib)   ...       0.01 
freq.    1319.36  E(vib)   ...       0.01 
freq.    1325.48  E(vib)   ...       0.01 
freq.    1378.89  E(vib)   ...       0.01 
freq.    1402.12  E(vib)   ...       0.00 
freq.    1821.53  E(vib)   ...       0.00 
freq.    3609.21  E(vib)   ...       0.00 

------------
INNER ENERGY
------------

The inner energy is: U= E(el) + E(ZPE) + E(vib) + E(rot) + E(trans)
    E(el)   - is the total energy from the electronic structure calculation
              = E(kin-el) + E(nuc-el) + E(el-el) + E(nuc-nuc)
    E(ZPE)  - the the zero temperature vibrational energy from the frequency calculation
    E(vib)  - the the finite temperature correction to E(ZPE) due to population
              of excited vibrational states
    E(rot)  - is the rotational thermal energy
    E(trans)- is the translational thermal energy

Summary of contributions to the inner energy U:
Electronic energy                ...  -1853.73712905 Eh
Zero point energy                ...      0.10500909 Eh      65.89 kcal/mol
Thermal vibrational correction   ...      0.02017991 Eh      12.66 kcal/mol
Thermal rotational correction    ...      0.00141627 Eh       0.89 kcal/mol
Thermal translational correction ...      0.00141627 Eh       0.89 kcal/mol
-----------------------------------------------------------------------
Total thermal energy                  -1853.60910751 Eh


Summary of corrections to the electronic energy:
(perhaps to be used in another calculation)
Total thermal correction                  0.02301245 Eh      14.44 kcal/mol
Non-thermal (ZPE) correction              0.10500909 Eh      65.89 kcal/mol
-----------------------------------------------------------------------
Total correction                          0.12802154 Eh      80.33 kcal/mol


--------
ENTHALPY
--------

The enthalpy is H = U + kB*T
                kB is Boltzmann's constant
Total thermal energy              ...  -1853.60910751 Eh 
Thermal Enthalpy correction       ...      0.00094421 Eh       0.59 kcal/mol
-----------------------------------------------------------------------
Total Enthalpy                    ...  -1853.60816330 Eh


Note: Only C1 symmetry has been detected, increase convergence thresholds 
      if your molecule has a higher symmetry. Symmetry factor of 1.0 is   
      used for the rotational entropy correction. 
 

Note: Rotational entropy computed according to Herzberg 
Infrared and Raman Spectra, Chapter V,1, Van Nostrand Reinhold, 1945 
Point Group:  C1, Symmetry Number:   1  
Rotational constants in cm-1:     0.018085     0.004424     0.004293 

Vibrational entropy computed according to the QRRHO of S. Grimme
Chem.Eur.J. 2012 18 9955 using a reference frequency of 100.0 cm-1


-------
ENTROPY
-------

The entropy contributions are T*S = T*(S(el)+S(vib)+S(rot)+S(trans))
     S(el)   - electronic entropy
     S(vib)  - vibrational entropy
     S(rot)  - rotational entropy
     S(trans)- translational entropy
The entropies will be listed as multiplied by the temperature to get
units of energy

Electronic entropy                ...      0.00065446 Eh      0.41 kcal/mol
Vibrational entropy               ...      0.03657374 Eh     22.95 kcal/mol
Rotational entropy                ...      0.01653743 Eh     10.38 kcal/mol
Translational entropy             ...      0.02081703 Eh     13.06 kcal/mol
-----------------------------------------------------------------------
Final entropy term                ...      0.07458266 Eh     46.80 kcal/mol

In case the symmetry of your molecule has not been determined correctly
or in case you have a reason to use a different symmetry number we print 
out the resulting rotational entropy values for sn=1,12:

 non-linear molecules -----------------------------------
|  sn= 1 | S(rot)=       0.01653743 Eh     10.38 kcal/mol|
|  sn= 2 | S(rot)=       0.01588298 Eh      9.97 kcal/mol|
|  sn= 3 | S(rot)=       0.01550015 Eh      9.73 kcal/mol|
|  sn= 4 | S(rot)=       0.01522852 Eh      9.56 kcal/mol|
|  sn= 5 | S(rot)=       0.01501783 Eh      9.42 kcal/mol|
|  sn= 6 | S(rot)=       0.01484569 Eh      9.32 kcal/mol|
|  sn= 7 | S(rot)=       0.01470014 Eh      9.22 kcal/mol|
|  sn= 8 | S(rot)=       0.01457407 Eh      9.15 kcal/mol|
|  sn= 9 | S(rot)=       0.01446286 Eh      9.08 kcal/mol|
|  sn=10 | S(rot)=       0.01436338 Eh      9.01 kcal/mol|
|  sn=11 | S(rot)=       0.01427339 Eh      8.96 kcal/mol|
|  sn=12 | S(rot)=       0.01419123 Eh      8.91 kcal/mol|
 linear molecules ---------------------------------------
|  Dinfh | S(rot)=       0.01047226 Eh      6.57 kcal/mol|
|  Cinfv | S(rot)=       0.01112671 Eh      6.98 kcal/mol|
 --------------------------------------------------------


-------------------
GIBBS FREE ENERGY
-------------------

The Gibbs free energy is G = H - T*S

Total enthalpy                    ...  -1853.60816330 Eh 
Total entropy correction          ...     -0.07458266 Eh    -46.80 kcal/mol
-----------------------------------------------------------------------
Final Gibbs free energy         ...  -1853.68274596 Eh

For completeness - the Gibbs free energy minus the electronic energy
G-E(el)                           ...      0.05438309 Eh     34.13 kcal/mol


Maximum memory used throughout the entire PROP-calculation: 546.3 MB

--------------------------------
SUGGESTED CITATIONS FOR THIS RUN
--------------------------------

Below you find a list of papers that are relevant to this ORCA run
We neither can nor want to force you to cite these papers, but we appreciate if you do
You receive ORCA, which is the product of decades of hard work by many enthusiastic individuals, for free
The only thing we kindly ask in return is that you cite our papers,
We deeply appreciate it, if you show your appreciation for ORCA by not just citing the generic ORCA reference.

Please note that relegating all ORCA citations to the supporting information does *not* help us.
SI sections are not indexed - citations you put there will not count into any citation statistics
But we need these citations in order to attract the funding resources that allow us to do what we are doing

Therefore, if you are a happy ORCA user, please consider citing a few of the papers listed below in the main body of your paper

In addition to the list printed below, the program has created the file rf_mecn_freq_B3L_C4_P_B.bibtex that contains the list in bibtex format
You can import this file easily into all common literature databanks and citation aid programs


List of essential papers. We consider these as the minimum necessary citations

  1. Neese,F.
     Software update: the ORCA program system, version 5.0
     WIRES Comput. Molec. Sci., 2022 12(1)e1606
     doi.org/10.1002/wcms.1606

List of papers to cite with high priority. The work reported in these papers was absolutely
necessary for this run to complete.
Our perspective: the developers of density functionals and basis sets usually get cited in chemistry papers
Good! But without the algorithms to do something with them, the functionals or basis sets would not do anything.
Hence, in our opinion, the algorithm design and method developments papers are equally worthy of getting cited

  1. Neese,F.
     An improvement of the resolution of the identity approximation for the formation of the Coulomb matrix
     J. Comp. Chem., 2003 24(14)1740-1747
     doi.org/10.1002/jcc.10318
  2. Neese,F.; Wennmohs,F.; Hansen,A.; Becker,U.
     Efficient, approximate and parallel Hartree-Fock and hybrid DFT calculations. A 'chain-of-spheres' algorithm for the Hartree-Fock exchange
     Chem. Phys., 2009 356(1-3)98-109
     doi.org/10.1016/j.chemphys.2008.10.036
  3. Bykov,D.; Petrenko,T.; Izsak,R.; Kossmann,S.; Becker,U.; Valeev,E.; Neese,F.
     Efficient implementation of the analytic second derivatives of Hartree-Fock and hybrid DFT energies: a detailed analysis of different approximations
     Molec. Phys., 2015 113 1961-1977
     doi.org/10.1080/00268976.2015.1025114
  4. Garcia-Rates,M.; Neese,F.
     Efficient implementation of the analytical second derivatives of hartree-fock and hybrid DFT energies within the framework of the conductor-like polarizable continuum model
     J. Comput. Chem., 2019 40 1816-1828
     doi.org/10.1002/jcc.25833
  5. Garcia-Rates,M.; Neese,F.
     Effect of the Solute Cavity on the Solvation Energy and its Derivatives within the Framework of the Gaussian Charge Scheme
     J. Comput. Chem., 2020 41 922-939
     doi.org/10.1002/jcc.26139
  6. Helmich-Paris,B.; de Souza,B.; Neese,F.; Izsák,R.
     An improved chain of spheres for exchange algorithm
     J. Chem. Phys., 2021 155 104109
     doi.org/doi: 10.1063/5.0058766.
  7. Neese,F.
     The SHARK Integral Generation and Digestion System
     J. Comp. Chem., 2022  1-16
     doi.org/10.1002/jcc.26942
  8. Grimme,S.; Antony,J.; Ehrlich,S.; Krieg,H.
     A consistent and accurate ab initio parametrization of density functional dispersion correction (DFT-D) for the 94 elements H-Pu
     J. Chem. Phys., 2010 132 154104
     doi.org/10.1063/1.3382344
  9. Grimme,S.; Ehrlich,S.; Goerigk,L.
     Effect of the damping function in dispersion corrected density functional theory
     J. Comput. Chem., 2011 32(7)1456-1465
     doi.org/10.1002/jcc.21759

List of suggested additional citations. These are papers that are important in the 'surrounding' of 
of this run, or papers that preceded the highly important papers. If you like your results we are grateful for a citation.

  1. Izsak,R.; Neese,F.
     An overlap fitted chain of spheres exchange method
     J. Chem. Phys., 2011 135 144105
     doi.org/10.1063/1.3646921
  2. Izsak,R.; Hansen,A.; Neese,F.
     The resolution of identity and chain of spheres approximations for the LPNO-CCSD singles Fock term
     Molec. Phys., 2012 110 2413-2417
     doi.org/10.1080/00268976.2012.687466
  3. Neese,F.
     The ORCA program system
     WIRES Comput. Molec. Sci., 2012 2(1)73-78
     doi.org/10.1002/wcms.81
  4. Izsak,R.; Neese,F.; Klopper,W.
     Robust fitting techniques in the chain of spheres approximation to the Fock exchange: The role of the complementary space
     J. Chem. Phys., 2013 139 
     doi.org/10.1063/1.4819264
  5. Neese,F.
     Software update: the ORCA program system, version 4.0
     WIRES Comput. Molec. Sci., 2018 8(1)1-6
     doi.org/10.1002/wcms.1327
  6. Neese,F.; Wennmohs,F.; Becker,U.; Riplinger,C.
     The ORCA quantum chemistry program package
     J. Chem. Phys., 2020 152 Art. No. L224108
     doi.org/10.1063/5.0004608

List of optional additional citations

  1. Neese,F.
     Approximate second-order SCF convergence for spin unrestricted wavefunctions
     Chem. Phys. Lett., 2000 325(1-3)93-98
     doi.org/10.1016/s0009-2614(00)00662-x

Timings for individual modules:

Sum of individual times          ...     1186.285 sec (=  19.771 min)
Startup calculation              ...        3.670 sec (=   0.061 min)   0.3 %
SCF iterations                   ...       80.013 sec (=   1.334 min)   6.7 %
Property integrals               ...      274.466 sec (=   4.574 min)  23.1 %
SCF Response                     ...      543.716 sec (=   9.062 min)  45.8 %
Property calculations            ...      284.421 sec (=   4.740 min)  24.0 %
                             ****ORCA TERMINATED NORMALLY****
TOTAL RUN TIME: 0 days 0 hours 19 minutes 47 seconds 144 msec
