
                                 *****************
                                 * O   R   C   A *
                                 *****************

                                            #,                                       
                                            ###                                      
                                            ####                                     
                                            #####                                    
                                            ######                                   
                                           ########,                                 
                                     ,,################,,,,,                         
                               ,,#################################,,                 
                          ,,##########################################,,             
                       ,#########################################, ''#####,          
                    ,#############################################,,   '####,        
                  ,##################################################,,,,####,       
                ,###########''''           ''''###############################       
              ,#####''   ,,,,##########,,,,          '''####'''          '####       
            ,##' ,,,,###########################,,,                        '##       
           ' ,,###''''                  '''############,,,                           
         ,,##''                                '''############,,,,        ,,,,,,###''
      ,#''                                            '''#######################'''  
     '                                                          ''''####''''         
             ,#######,   #######,   ,#######,      ##                                
            ,#'     '#,  ##    ##  ,#'     '#,    #''#        ,####,   ,####,        
            ##       ##  ##   ,#'  ##            #'  '#       #'       #'  '#        
            ##       ##  #######   ##           ,######,      #####,   #    #        
            '#,     ,#'  ##    ##  '#,     ,#' ,#      #,     #,   #   #,  ,#        
             '#######'   ##     ##  '#######'  #'      '#     '####' # '####'        



                #########################################################
                #                        -***-                          #
                #          Department of theory and spectroscopy        #
                #                                                       #
                #                      Frank Neese                      #
                #                                                       #
                #     Directorship, Architecture, Infrastructure        #
                #                    SHARK, DRIVERS                     #
                #        Core code/Algorithms in most modules           #
                #                                                       #
                #        Max Planck Institute fuer Kohlenforschung      #
                #                Kaiser Wilhelm Platz 1                 #
                #                 D-45470 Muelheim/Ruhr                 #
                #                      Germany                          #
                #                                                       #
                #                  All rights reserved                  #
                #                        -***-                          #
                #########################################################


                         Program Version 6.0.1  -  RELEASE   -


 With contributions from (in alphabetic order):
[Max-Planck-Institut fuer Kohlenforschung]                               
  Daniel Aravena         : Magnetic Suceptibility                        
  Michael Atanasov       : Ab Initio Ligand Field Theory (pilot matlab implementation)
  Alexander A. Auer      : GIAO ZORA, VPT2 properties, NMR spectrum      
  Ute Becker             : All parallelization in ORCA, NUMFREQ, NUMCALC 
  Giovanni Bistoni       : ED, misc. LED, open-shell LED, HFLD           
  Martin Brehm           : Molecular dynamics                            
  Dmytro Bykov           : pre 5.0 version of the SCF Hessian            
  Marcos Casanova-Páez   : Triplet and SCS-CIS(D). UHF-(DLPNO)-IP/EA/STEOM-CCSD. UHF-CVS-IP/STEOM-CCSD   
  Vijay G. Chilkuri      : MRCI spin determinant printing, contributions to CSF-ICE 
  Pauline Colinet        : FMM embedding                                 
  Dipayan Datta          : RHF DLPNO-CCSD density                        
  Achintya Kumar Dutta   : EOM-CC, STEOM-CC                              
  Nicolas Foglia         : Exact transition moments, OPA infrastructure, MCD improvements    
  Dmitry Ganyushin       : Spin-Orbit,Spin-Spin,Magnetic field MRCI      
  Miquel Garcia-Rates    : C-PCM and meta-GGA Hessian, CCSD/C-PCM, Gaussian charge scheme 
  Tiago L. C. Gouveia    : GS-ROHF, GS-ROCIS                             
  Yang Guo               : DLPNO-NEVPT2, F12-NEVPT2, CIM, IAO-localization        
  Andreas Hansen         : Spin unrestricted coupled pair/coupled cluster methods 
  Ingolf Harden          : AUTO-CI MPn and infrastructure                
  Benjamin Helmich-Paris : MC-RPA, TRAH-(SCF,CASSCF), AVAS, COSX integrals, SCF dyn. polar. 
  Lee Huntington         : MR-EOM, pCC                                   
  Robert Izsak           : Overlap fitted RIJCOSX, COSX-SCS-MP3, EOM     
  Riya Kayal             : Wick's Theorem for AUTO-CI, AUTO-CI UHF-CCSDT 
  Emily Kempfer          : AUTO-CI, RHF CISDT and CCSDT                  
  Christian Kollmar      : KDIIS, OOCD, Brueckner-CCSD(T), CCSD density, CASPT2, CASPT2-K, improved NEVPT2 
  Axel Koslowski         : Symmetry handling                             
  Simone Kossmann        : meta-GGA functionals, TD-DFT gradient, OOMP2, (MP2 Hessian; deprecated post 5.0) 
  Lucas Lang             : DCDCAS                                        
  Marvin Lechner         : AUTO-CI (C++ implementation), FIC-MRCC        
  Spencer Leger          : CASSCF response                               
  Dagmar Lenk            : GEPOL surface, SMD, ORCA-2-JSON               
  Dimitrios Liakos       : Extrapolation schemes; Compound Job, initial MDCI parallelization 
  Dimitrios Manganas     : Further ROCIS development; embedding schemes. LFT, Crystal Embedding 
  Dimitrios Pantazis     : SARC Basis sets                               
  Anastasios Papadopoulos: AUTO-CI, single reference methods and gradients 
  Taras Petrenko         : pre 6.0 DFT Hessian and TD-DFT gradient, (ASA, deprecated), ECA, 1-Electron XAS/XES, NRVS 
  Peter Pinski           : DLPNO-MP2, DLPNO-MP2 Gradient                 
  Christoph Reimann      : Effective Core Potentials                     
  Marius Retegan         : Local ZFS, SOC                                
  Christoph Riplinger    : Optimizer, TS searches, QM/MM, DLPNO-CCSD(T), (RO)-DLPNO pert. Triples 
  Michael Roemelt        : Original ROCIS implementation                 
  Masaaki Saitow         : Open-shell DLPNO-CCSD energy and density      
  Barbara Sandhoefer     : DKH picture change effects                    
  Kantharuban Sivalingam : CASSCF convergence/infrastructure, NEVPT2 and variants, FIC-MRCI 
  Bernardo de Souza      : ESD, SOC TD-DFT                               
  Georgi L. Stoychev     : AutoAux, RI-MP2 NMR, DLPNO-MP2 response, X2C  
  Van Anh Tran           : RI-MP2 g-tensors                              
  Willem Van den Heuvel  : Paramagnetic NMR                              
  Zikuan Wang            : NOTCH, Electric field optimization            
  Frank Wennmohs         : Technical directorship and infrastructure     
  Hang Xu                : AUTO-CI-Response properties                   
                                                                         
[FACCTs GmbH]                                                            
  Markus Bursch, Miquel Garcia-Rates, Christoph Riplinger, Bernardo de Souza, Georgi L. Stoychev 
                                                                 
  APM, Basis sets (HGBS, AHGBS, def-TZVP (Ac-Lr), def2-XVPD (La-Lu)), CI-OPT, improved COSX, DLPNO-Multilevel,           
  DOCKER, DRACO, updates on ESD, GOAT, IRC, LR-CPCM, MBIS, meta-GGA TD-DFT gradient, ML-optimized integration grids, 
  MM, NACMEs, nearIR, NEB, NEB-TS, NL-DFT gradient (VV10), 2- and 3-layer-ONIOM, interface openCOSMO-RS, QMMM,   
  Crystal-QMMM, SF, symmetry and pop. for TD-DFT, r2SCAN hybrids, SOLVATOR                                   
                                                                         
[Other institutions]                                                     
  V. Asgeirsson          : NEB                                           
  Christoph Bannwarth    : sTDA-DFT, sTD-DFT, PBEh-3c, B97-3c, D3        
  Sebastian Ehlert       : rSCAN, r2SCAN, r2SCAN-3c, D4, dhf basis sets  
  Marvin Friede          : D4 for Fr, Ra, Ac-Lr                          
  Lars Goerigk           : TD-DFT with DH, B97 family of functionals     
  Stefan Grimme          : VdW corrections, initial TS optimization, DFT functionals, gCP, sTDA/sTD-DF 
  Waldemar Hujo          : DFT-NL                                        
  H. Jonsson             : NEB                                           
  Holger Kruse           : gCP                                           
  Marcel Mueller         : wB97X-3c, vDZP basis set                      
  Hagen Neugebauer       : wr2SCAN                                       
  Tobias Risthaus        : range-separated hybrid DFT                    
  Lukas Wittmann         : regularized MP2, r2SCAN double-hybrids, wr2SCAN        
                                                                         
We gratefully acknowledge several colleagues who have allowed us to      
interface, adapt or use parts of their codes:                            
  Ed Valeev, F. Pavosevic, A. Kumar             : LibInt (2-el integral package), F12 methods 
  Garnet Chan, S. Sharma, J. Yang, R. Olivares  : DMRG                   
  Ulf Ekstrom                                   : XCFun DFT Library      
  Mihaly Kallay                                 : mrcc  (arbitrary order and MRCC methods)
  Frank Weinhold                                : gennbo (NPA and NBO analysis)           
  Simon Mueller                                 : openCOSMO-RS                            
  Christopher J. Cramer and Donald G. Truhlar   : smd solvation model                     
  S Lehtola, MJT Oliveira, MAL Marques          : LibXC Library                           
  Liviu Ungur et al                             : ANISO software                          


 Your calculation uses the libint2 library for the computation of 2-el integrals
 For citations please refer to: http://libint.valeyev.net

 Your ORCA version has been built with support for libXC version: 6.2.2
 For citations please refer to: https://libxc.gitlab.io

 This ORCA versions uses:
   CBLAS   interface :  Fast vector & matrix operations
   LAPACKE interface :  Fast linear algebra routines
   SCALAPACK package :  Parallel linear algebra routines
   Shared memory     :  Shared parallel matrices
   BLAS/LAPACK       :  OpenBLAS 0.3.27  USE64BITINT DYNAMIC_ARCH NO_AFFINITY SkylakeX SINGLE_THREADED
        Core in use  :  SkylakeX
   Copyright (c) 2011-2014, The OpenBLAS Project


NOTE: MaxCore=8000 MB was set to SCF,MP2,MDCI,CIPSI,MRCI and CIS
      => If you want to overwrite this, your respective input block should be placed after the MaxCore statement
Your calculation utilizes the atom-pairwise dispersion correction
with the Becke-Johnson damping scheme (D3BJ)


Your calculation utilizes the SMD solvation module
Please cite in your paper:
A.V. Marenich, C.J. Cramer, D.G. Truhlar J. Phys. Chem. B, 113, (2009), 6378 

Warning: RI is on but no J-basis has been assigned. Assigning Def2/J (nothing to worry about!)
================================================================================

----- Orbital basis set information -----
Your calculation utilizes the basis: def2-TZVP
   F. Weigend and R. Ahlrichs, Phys. Chem. Chem. Phys. 7, 3297 (2005).

----- AuxJ basis set information -----
Your calculation utilizes the auxiliary basis: def2/J
   F. Weigend, Phys. Chem. Chem. Phys. 8, 1057 (2006).

================================================================================
                                        WARNINGS
                       Please study these warnings very carefully!
================================================================================



WARNING: SCAN, rSCAN, or r2SCAN functional requested.
  ===> : libXC variant has now been activated.



================================================================================
                                       INPUT FILE
================================================================================
NAME = rf_mecn_freq_r2s_P_A.inp
|  1> !r2scanh def2-TZVP freq d3 TightSCF SlowConv defgrid2
|  2>  
|  3> %pal
|  4> nprocs 20
|  5> end
|  6>  
|  7> %scf
|  8> MaxIter 1500
|  9> end
| 10>  
| 11> %maxcore 8000
| 12>  
| 13> !CPCM
| 14> %cpcm smd true
| 15> SMDsolvent "ACETONITRILE"
| 16> end
| 17>  
| 18> * xyz 0 1
| 19> 6        4.745389000     -0.036840000     -0.242693000
| 20> 8        5.124956000     -0.870399000     -1.191299000
| 21> 8        5.268269000      0.988817000      0.078667000
| 22> 6        3.453636000     -0.528993000      0.448632000
| 23> 6        2.205280000      0.139762000     -0.190230000
| 24> 6        0.858998000     -0.531533000      0.216407000
| 25> 6       -0.371309000      0.394853000     -0.020099000
| 26> 6       -1.721139000     -0.385738000     -0.035686000
| 27> 6       -2.951528000      0.538488000      0.193291000
| 28> 6       -4.305463000     -0.101987000     -0.217948000
| 29> 9        3.323250000     -1.863978000      0.352260000
| 30> 9        3.510955000     -0.192077000      1.744847000
| 31> 9        2.188463000      1.431067000      0.175146000
| 32> 9        2.330963000      0.071954000     -1.526448000
| 33> 9        0.703238000     -1.650161000     -0.507651000
| 34> 9        0.906355000     -0.857399000      1.515717000
| 35> 9       -0.412285000      1.312318000      0.956887000
| 36> 9       -0.224348000      1.016745000     -1.199176000
| 37> 9       -1.703156000     -1.313914000      0.932630000
| 38> 9       -1.850903000     -0.997579000     -1.221624000
| 39> 9       -2.800047000      1.666886000     -0.517046000
| 40> 9       -3.026654000      0.845918000      1.493966000
| 41> 9       -4.428043000     -1.311261000      0.318028000
| 42> 9       -5.290449000      0.668172000      0.228376000
| 43> 9       -4.406007000     -0.197416000     -1.535794000
| 44> 1        5.926106000     -0.516923000     -1.621337000
| 45> *
| 46> 
| 47>                          ****END OF INPUT****
================================================================================

                       ****************************
                       * Single Point Calculation *
                       ****************************

---------------------------------
CARTESIAN COORDINATES (ANGSTROEM)
---------------------------------
  C      4.745389   -0.036840   -0.242693
  O      5.124956   -0.870399   -1.191299
  O      5.268269    0.988817    0.078667
  C      3.453636   -0.528993    0.448632
  C      2.205280    0.139762   -0.190230
  C      0.858998   -0.531533    0.216407
  C     -0.371309    0.394853   -0.020099
  C     -1.721139   -0.385738   -0.035686
  C     -2.951528    0.538488    0.193291
  C     -4.305463   -0.101987   -0.217948
  F      3.323250   -1.863978    0.352260
  F      3.510955   -0.192077    1.744847
  F      2.188463    1.431067    0.175146
  F      2.330963    0.071954   -1.526448
  F      0.703238   -1.650161   -0.507651
  F      0.906355   -0.857399    1.515717
  F     -0.412285    1.312318    0.956887
  F     -0.224348    1.016745   -1.199176
  F     -1.703156   -1.313914    0.932630
  F     -1.850903   -0.997579   -1.221624
  F     -2.800047    1.666886   -0.517046
  F     -3.026654    0.845918    1.493966
  F     -4.428043   -1.311261    0.318028
  F     -5.290449    0.668172    0.228376
  F     -4.406007   -0.197416   -1.535794
  H      5.926106   -0.516923   -1.621337

----------------------------
CARTESIAN COORDINATES (A.U.)
----------------------------
  NO LB      ZA    FRAG     MASS         X           Y           Z
   0 C     6.0000    0    12.011    8.967486   -0.069618   -0.458623
   1 O     8.0000    0    15.999    9.684763   -1.644816   -2.251229
   2 O     8.0000    0    15.999    9.955586    1.868593    0.148659
   3 C     6.0000    0    12.011    6.526426   -0.999652    0.847792
   4 C     6.0000    0    12.011    4.167375    0.264112   -0.359483
   5 C     6.0000    0    12.011    1.623271   -1.004452    0.408950
   6 C     6.0000    0    12.011   -0.701672    0.746164   -0.037982
   7 C     6.0000    0    12.011   -3.252481   -0.728939   -0.067437
   8 C     6.0000    0    12.011   -5.577580    1.017595    0.365267
   9 C     6.0000    0    12.011   -8.136146   -0.192727   -0.411862
  10 F     9.0000    0    18.998    6.280032   -3.522408    0.665675
  11 F     9.0000    0    18.998    6.634743   -0.362973    3.297283
  12 F     9.0000    0    18.998    4.135596    2.704325    0.330978
  13 F     9.0000    0    18.998    4.404882    0.135973   -2.884569
  14 F     9.0000    0    18.998    1.328927   -3.118352   -0.959321
  15 F     9.0000    0    18.998    1.712763   -1.620249    2.864290
  16 F     9.0000    0    18.998   -0.779106    2.479922    1.808254
  17 F     9.0000    0    18.998   -0.423956    1.921370   -2.266114
  18 F     9.0000    0    18.998   -3.218498   -2.482938    1.762415
  19 F     9.0000    0    18.998   -3.497700   -1.885151   -2.308535
  20 F     9.0000    0    18.998   -5.291322    3.149958   -0.977075
  21 F     9.0000    0    18.998   -5.719547    1.598553    2.823187
  22 F     9.0000    0    18.998   -8.367789   -2.477924    0.600986
  23 F     9.0000    0    18.998   -9.997500    1.262662    0.431568
  24 F     9.0000    0    18.998   -8.326147   -0.373062   -2.902230
  25 H     1.0000    0     1.008   11.198717   -0.976843   -3.063883

--------------------------------
INTERNAL COORDINATES (ANGSTROEM)
--------------------------------
 C      0   0   0     0.000000000000     0.00000000     0.00000000
 O      1   0   0     1.318614825188     0.00000000     0.00000000
 O      1   2   0     1.195260651761   127.58526959     0.00000000
 C      1   2   3     1.545564830100   111.16595112   178.84823286
 C      4   1   2     1.553631425984   110.52153361   264.67834254
 C      5   4   1     1.558353570381   113.66805430   166.82935261
 C      6   5   4     1.558133955500   112.73228881   160.78160033
 C      7   6   5     1.559360860337   112.79281710   162.54790115
 C      8   7   6     1.555789592755   112.68929783   161.34453016
 C      9   8   7     1.553211423139   113.91935499   163.16743286
 F      4   1   2     1.344794787916   111.41286385    25.59086685
 F      4   1   2     1.340511538571   108.46625686   145.37095043
 F      5   4   1     1.342106939066   108.19634258   288.58789722
 F      5   4   1     1.343827624689   108.18029902    46.16611160
 F      6   5   4     1.341584796928   108.58152151   281.40120399
 F      6   5   4     1.340387187161   109.09570514    40.00348449
 F      7   6   5     1.340866400130   108.68367796   283.36817636
 F      7   6   5     1.341107664251   108.82169870    42.02527264
 F      8   7   6     1.341443234401   109.11989273    40.89634933
 F      8   7   6     1.340759875899   108.72683441   282.23374916
 F      9   8   7     1.341941575976   109.41118551    42.50085810
 F      9   8   7     1.338623388560   108.89412481   283.31313582
 F     10   9   8     1.328397431514   110.42543515    50.06261739
 F     10   9   8     1.327609663438   108.57305529   169.39313108
 F     10   9   8     1.325116549475   111.04806466   288.78791834
 H      2   1   3     0.975561011173   108.93294648   359.58124736

---------------------------
INTERNAL COORDINATES (A.U.)
---------------------------
 C      0   0   0     0.000000000000     0.00000000     0.00000000
 O      1   0   0     2.491820895734     0.00000000     0.00000000
 O      1   2   0     2.258715290481   127.58526959     0.00000000
 C      1   2   3     2.920694251110   111.16595112   178.84823286
 C      4   1   2     2.935937908163   110.52153361   264.67834254
 C      5   4   1     2.944861467838   113.66805430   166.82935261
 C      6   5   4     2.944446455858   112.73228881   160.78160033
 C      7   6   5     2.946764969992   112.79281710   162.54790115
 C      8   7   6     2.940016252313   112.68929783   161.34453016
 C      9   8   7     2.935144217812   113.91935499   163.16743286
 F      4   1   2     2.541293855485   111.41286385    25.59086685
 F      4   1   2     2.533199687261   108.46625686   145.37095043
 F      5   4   1     2.536214557271   108.19634258   288.58789722
 F      5   4   1     2.539466181860   108.18029902    46.16611160
 F      6   5   4     2.535227851626   108.58152151   281.40120399
 F      6   5   4     2.532964697151   109.09570514    40.00348449
 F      7   6   5     2.533870278422   108.68367796   283.36817636
 F      7   6   5     2.534326201538   108.82169870    42.02527264
 F      8   7   6     2.534960337220   109.11989273    40.89634933
 F      8   7   6     2.533668976800   108.72683441   282.23374916
 F      9   8   7     2.535902066318   109.41118551    42.50085810
 F      9   8   7     2.529631600841   108.89412481   283.31313582
 F     10   9   8     2.510307342565   110.42543515    50.06261739
 F     10   9   8     2.508818676645   108.57305529   169.39313108
 F     10   9   8     2.504107374035   111.04806466   288.78791834
 H      2   1   3     1.843543138047   108.93294648   359.58124736

---------------------
BASIS SET INFORMATION
---------------------
There are 4 groups of distinct atoms

 Group   1 Type C   : 11s6p2d1f contracted to 5s3p2d1f pattern {62111/411/11/1}
 Group   2 Type O   : 11s6p2d1f contracted to 5s3p2d1f pattern {62111/411/11/1}
 Group   3 Type F   : 11s6p2d1f contracted to 5s3p2d1f pattern {62111/411/11/1}
 Group   4 Type H   : 5s1p contracted to 3s1p pattern {311/1}

Atom   0C    basis set group =>   1
Atom   1O    basis set group =>   2
Atom   2O    basis set group =>   2
Atom   3C    basis set group =>   1
Atom   4C    basis set group =>   1
Atom   5C    basis set group =>   1
Atom   6C    basis set group =>   1
Atom   7C    basis set group =>   1
Atom   8C    basis set group =>   1
Atom   9C    basis set group =>   1
Atom  10F    basis set group =>   3
Atom  11F    basis set group =>   3
Atom  12F    basis set group =>   3
Atom  13F    basis set group =>   3
Atom  14F    basis set group =>   3
Atom  15F    basis set group =>   3
Atom  16F    basis set group =>   3
Atom  17F    basis set group =>   3
Atom  18F    basis set group =>   3
Atom  19F    basis set group =>   3
Atom  20F    basis set group =>   3
Atom  21F    basis set group =>   3
Atom  22F    basis set group =>   3
Atom  23F    basis set group =>   3
Atom  24F    basis set group =>   3
Atom  25H    basis set group =>   4
---------------------------------
AUXILIARY/J BASIS SET INFORMATION
---------------------------------
There are 4 groups of distinct atoms

 Group   1 Type C   : 12s5p4d2f1g contracted to 6s4p3d1f1g pattern {711111/2111/211/2/1}
 Group   2 Type O   : 12s5p4d2f1g contracted to 6s4p3d1f1g pattern {711111/2111/211/2/1}
 Group   3 Type F   : 12s5p4d2f1g contracted to 6s4p3d1f1g pattern {711111/2111/211/2/1}
 Group   4 Type H   : 5s2p1d contracted to 3s1p1d pattern {311/2/1}

Atom   0C    basis set group =>   1
Atom   1O    basis set group =>   2
Atom   2O    basis set group =>   2
Atom   3C    basis set group =>   1
Atom   4C    basis set group =>   1
Atom   5C    basis set group =>   1
Atom   6C    basis set group =>   1
Atom   7C    basis set group =>   1
Atom   8C    basis set group =>   1
Atom   9C    basis set group =>   1
Atom  10F    basis set group =>   3
Atom  11F    basis set group =>   3
Atom  12F    basis set group =>   3
Atom  13F    basis set group =>   3
Atom  14F    basis set group =>   3
Atom  15F    basis set group =>   3
Atom  16F    basis set group =>   3
Atom  17F    basis set group =>   3
Atom  18F    basis set group =>   3
Atom  19F    basis set group =>   3
Atom  20F    basis set group =>   3
Atom  21F    basis set group =>   3
Atom  22F    basis set group =>   3
Atom  23F    basis set group =>   3
Atom  24F    basis set group =>   3
Atom  25H    basis set group =>   4


           ************************************************************
           *        Program running with 20 parallel MPI-processes    *
           *              working on a common directory               *
           ************************************************************
------------------------------------------------------------------------------
                             ORCA STARTUP CALCULATIONS
                           -- RI-GTO INTEGRALS CHOSEN --
------------------------------------------------------------------------------
------------------------------------------------------------------------------
                   ___                                                        
                  /   \      - P O W E R E D   B Y -                         
                 /     \                                                     
                 |  |  |   _    _      __       _____    __    __             
                 |  |  |  | |  | |    /  \     |  _  \  |  |  /  |          
                  \  \/   | |  | |   /    \    | | | |  |  | /  /          
                 / \  \   | |__| |  /  /\  \   | |_| |  |  |/  /          
                |  |  |   |  __  | /  /__\  \  |    /   |      \           
                |  |  |   | |  | | |   __   |  |    \   |  |\   \          
                \     /   | |  | | |  |  |  |  | |\  \  |  | \   \       
                 \___/    |_|  |_| |__|  |__|  |_| \__\ |__|  \__/        
                                                                              
                      - O R C A' S   B I G   F R I E N D -                    
                                      &                                       
                       - I N T E G R A L  F E E D E R -                       
                                                                              
 v1 FN, 2020, v2 2021, v3 2022-2024                                           
------------------------------------------------------------------------------


----------------------
SHARK INTEGRAL PACKAGE
----------------------

Number of atoms                             ...     26
Number of basis functions                   ...    781
Number of shells                            ...    279
Maximum angular momentum                    ...      3
Integral batch strategy                     ... SHARK/LIBINT Hybrid
RI-J (if used) integral strategy            ... SPLIT-RIJ (Revised 2003 algorithm where possible)
Printlevel                                  ...      1
Contraction scheme used                     ... SEGMENTED contraction
Prescreening option                         ... SCHWARTZ
   Thresh                                   ... 2.500e-11
   Tcut                                     ... 2.500e-12
   Tpresel                                  ... 2.500e-12 
Coulomb Range Separation                    ... NOT USED
Exchange Range Separation                   ... NOT USED
Multipole approximations                    ... NOT USED
Finite Nucleus Model                        ... NOT USED
CABS basis                                  ... NOT available
Auxiliary Coulomb fitting basis             ... AVAILABLE
   # of basis functions in Aux-J            ...   1236
   # of shells in Aux-J                     ...    380
   Maximum angular momentum in Aux-J        ...      4
Auxiliary J/K fitting basis                 ... NOT available
Auxiliary Correlation fitting basis         ... NOT available
Auxiliary 'external' fitting basis          ... NOT available

Checking pre-screening integrals            ... done (  0.0 sec) Dimension = 279
Check shell pair data                       ... done (  0.0 sec)
Shell pair information
Shell pair cut-off parameter TPreSel        ...   2.5e-12
Total number of shell pairs                 ...     39060
Shell pairs after pre-screening             ...     24077
Total number of primitive shell pairs       ...    128824
Primitive shell pairs kept                  ...     50982
          la=0 lb=0:   4575 shell pairs
          la=1 lb=0:   6581 shell pairs
          la=1 lb=1:   2274 shell pairs
          la=2 lb=0:   3574 shell pairs
          la=2 lb=1:   2612 shell pairs
          la=2 lb=2:    735 shell pairs
          la=3 lb=0:   1637 shell pairs
          la=3 lb=1:   1253 shell pairs
          la=3 lb=2:    675 shell pairs
          la=3 lb=3:    161 shell pairs

Calculating one electron integrals          ... done (  0.0 sec)
Calculating RI/J V-Matrix + Cholesky decomp.... done (  0.1 sec)
Calculating Nuclear repulsion               ... done (  0.0 sec) ENN=   2918.489295442193 Eh

Diagonalization of the overlap matrix:
Smallest eigenvalue                        ... 5.142e-05
Time for diagonalization                   ...    0.129 sec
Threshold for overlap eigenvalues          ... 1.000e-07
Number of eigenvalues below threshold      ... 0
Time for construction of square roots      ...    0.060 sec
Total time needed                          ...    0.195 sec

-------------------
DFT GRID GENERATION
-------------------

General Integration Accuracy     IntAcc      ... 4.388
Radial Grid Type                 RadialGrid  ... OptM3 with GC (2021)
Angular Grid (max. ang.)         AngularGrid ... 4 (Lebedev-302)
Angular grid pruning method      GridPruning ... 4 (adaptive)
Weight generation scheme         WeightScheme... mBecke (2022)
Basis function cutoff            BFCut       ... 1.0000e-11
Integration weight cutoff        WCut        ... 1.0000e-14
Partially contracted basis set               ... off
Rotationally invariant grid construction     ... off
Angular grids for H and He will be reduced by one unit

Total number of grid points                  ...   154631
Total number of batches                      ...     2429
Average number of points per batch           ...       63
Average number of grid points per atom       ...     5947

--------------------
COSX GRID GENERATION
--------------------

GRIDX 1
-------
General Integration Accuracy     IntAcc      ... 3.816
Radial Grid Type                 RadialGrid  ... OptM3 with GC (2021)
Angular Grid (max. ang.)         AngularGrid ... 1 (Lebedev-50)
Angular grid pruning method      GridPruning ... 4 (adaptive)
Weight generation scheme         WeightScheme... mBecke (2022)
Basis function cutoff            BFCut       ... 1.0000e-11
Integration weight cutoff        WCut        ... 1.0000e-14
Partially contracted basis set               ... on
Rotationally invariant grid construction     ... off
Angular grids for H and He will be reduced by one unit

Total number of grid points                  ...    19435
Total number of batches                      ...      163
Average number of points per batch           ...      119
Average number of grid points per atom       ...      748
UseSFitting                                  ... on

GRIDX 2
-------
General Integration Accuracy     IntAcc      ... 4.020
Radial Grid Type                 RadialGrid  ... OptM3 with GC (2021)
Angular Grid (max. ang.)         AngularGrid ... 2 (Lebedev-110)
Angular grid pruning method      GridPruning ... 4 (adaptive)
Weight generation scheme         WeightScheme... mBecke (2022)
Basis function cutoff            BFCut       ... 1.0000e-11
Integration weight cutoff        WCut        ... 1.0000e-14
Partially contracted basis set               ... on
Rotationally invariant grid construction     ... off
Angular grids for H and He will be reduced by one unit

Total number of grid points                  ...    45815
Total number of batches                      ...      374
Average number of points per batch           ...      122
Average number of grid points per atom       ...     1762
UseSFitting                                  ... on

GRIDX 3
-------
General Integration Accuracy     IntAcc      ... 4.338
Radial Grid Type                 RadialGrid  ... OptM3 with GC (2021)
Angular Grid (max. ang.)         AngularGrid ... 3 (Lebedev-194)
Angular grid pruning method      GridPruning ... 4 (adaptive)
Weight generation scheme         WeightScheme... mBecke (2022)
Basis function cutoff            BFCut       ... 1.0000e-11
Integration weight cutoff        WCut        ... 1.0000e-14
Partially contracted basis set               ... on
Rotationally invariant grid construction     ... off
Angular grids for H and He will be reduced by one unit

Total number of grid points                  ...   101364
Total number of batches                      ...      802
Average number of points per batch           ...      126
Average number of grid points per atom       ...     3899
UseSFitting                                  ... on
Initializing property integral containers    ... done (  0.0 sec)

SHARK setup successfully completed in   3.8 seconds

Maximum memory used throughout the entire STARTUP-calculation: 61.0 MB


           ************************************************************
           *        Program running with 20 parallel MPI-processes    *
           *              working on a common directory               *
           ************************************************************
-------------------------------------------------------------------------------
                                 ORCA GUESS
                   Start orbitals & Density for SCF / CASSCF
-------------------------------------------------------------------------------

------------
SCF SETTINGS
------------
Hamiltonian:
 Density Functional     Method          .... DFT(GTOs)
  Functional kind                       .... Exchange
  Functional name                       .... Re-regularized SCAN exchange by Furness et al
  Functional family                     .... MGGA
  Functional refs                              
    [ 0] J. W. Furness, A. D. Kaplan, J. Ning, J. P. Perdew, and J. Sun.,  J. Phys. Chem. Lett. 11, 8208-8215 (2020), doi: 10.1021/acs.jpclett.0c02405
    [ 1] J. W. Furness, A. D. Kaplan, J. Ning, J. P. Perdew, and J. Sun.,  J. Phys. Chem. Lett. 11, 9248-9248 (2020), doi: 10.1021/acs.jpclett.0c03077
  Functional external parameters        .... 6
    Parameter  0 _c1        =  6.670000e-01 : c1 parameter        
    Parameter  1 _c2        =  8.000000e-01 : c2 parameter        
    Parameter  2 _d         =  1.240000e+00 : d parameter         
    Parameter  3 _k1        =  6.500000e-02 : k1 parameter        
    Parameter  4 _eta       =  1.000000e-03 : eta parameter       
    Parameter  5 _dp2       =  3.610000e-01 : dp2 parameter       
  Functional kind                       .... Correlation
  Functional name                       .... Re-regularized SCAN correlation by Furness et al
  Functional family                     .... MGGA
  Functional refs                              
    [ 0] J. W. Furness, A. D. Kaplan, J. Ning, J. P. Perdew, and J. Sun.,  J. Phys. Chem. Lett. 11, 8208-8215 (2020), doi: 10.1021/acs.jpclett.0c02405
    [ 1] J. W. Furness, A. D. Kaplan, J. Ning, J. P. Perdew, and J. Sun.,  J. Phys. Chem. Lett. 11, 9248-9248 (2020), doi: 10.1021/acs.jpclett.0c03077
  Functional external parameters        .... 1
    Parameter  0 _eta       =  1.000000e-03 : Regularization parameter
 Gradients option       PostSCFGGA      .... off
 Hybrid DFT is turned on
   Fraction HF Exchange ScalHFX         ....  0.100000
   Scaling of DF-GGA-X  ScalDFX         ....  0.900000
   Scaling of DF-GGA-C  ScalDFC         ....  1.000000
   Scaling of DF-LDA-C  ScalLDAC        ....  1.000000
   Perturbative correction              ....  0.000000
   NL short-range parameter             .... 11.900000
 RI-approximation to the Coulomb term is turned on
   Number of AuxJ basis functions       .... 1236
   RIJ-COSX (HFX calculated with COS-X)).... on


General Settings:
 Integral files         IntName         .... rf_mecn_freq_r2s_P_A
 Hartree-Fock type      HFTyp           .... RHF
 Total Charge           Charge          ....    0
 Multiplicity           Mult            ....    1
 Number of Electrons    NEL             ....  200
 Basis Dimension        Dim             ....  781
 Nuclear Repulsion      ENuc            ....   2918.4892954422 Eh

Convergence Acceleration:
 AO-DIIS                CNVDIIS         .... on
   Start iteration      DIISMaxIt       ....     0
   Startup error        DIISStart       ....  0.200000
   # of expansion vecs  DIISMaxEq       ....     5
   Bias factor          DIISBfac        ....   1.050
   Max. coefficient     DIISMaxC        ....  10.000
 MO-DIIS                CNVKDIIS        .... off
 Trust-Rad. Augm. Hess. CNVTRAH         .... auto
   Auto Start mean grad. ratio tolernc. ....  1.125000
   Auto Start start iteration           ....    50
   Auto Start num. interpolation iter.  ....    10
   Max. Number of Micro iterations      ....    24
   Max. Number of Macro iterations      .... Maxiter - #DIIS iter
   Number of Davidson start vectors     ....     2
   Converg. threshold    (grad. norm)   ....   1.000e-05
   Grad. Scal. Fac. for Micro threshold ....   0.100
   Minimum threshold for Micro iter.    ....   1.000e-02
   NR start threshold (gradient norm)   ....   1.000e-04
   Initial trust radius                 ....   0.400
   Minimum AH scaling param. (alpha)    ....   1.000
   Maximum AH scaling param. (alpha)    .... 1000.000
   Quad. conv. algorithm                .... NR
   White noise on init. David. guess    .... on
   Maximum white noise                  ....   0.010
   Pseudo random numbers                .... off
   Inactive MOs                         .... canonical
   Orbital update algorithm             .... Taylor
   Preconditioner                       .... Diag
   Full preconditioner red. dimension   ....   250
 SOSCF                  CNVSOSCF        .... on
   Start iteration      SOSCFMaxIt      ....   150
   Startup grad/error   SOSCFStart      ....  0.001000
   Hessian update       SOSCFHessUp     .... L-BFGS
 Level Shifting         CNVShift        .... on
   Level shift para.    LevelShift      ....    0.2500
   Turn off err/grad.   ShiftErr        ....    0.0000
 Zerner damping         CNVZerner       .... off
 Static damping         CNVDamp         .... on
   Fraction old density DampFac         ....    0.8500
   Max. Damping (<1)    DampMax         ....    0.9800
   Min. Damping (>=0)   DampMin         ....    0.0000
   Turn off err/grad.   DampErr         ....    0.0300

SCF Procedure:
 Maximum # iterations   MaxIter         ....  1500
 SCF integral mode      SCFMode         .... Direct
   Integral package                     .... SHARK and LIBINT hybrid scheme
 Reset frequency        DirectResetFreq ....    20
 Integral Threshold     Thresh          ....  2.500e-11 Eh
 Primitive CutOff       TCut            ....  2.500e-12 Eh

Convergence Tolerance:
 Convergence Check Mode ConvCheckMode   .... Total+1el-Energy
 Convergence forced     ConvForced      .... 0
 Energy Change          TolE            ....  1.000e-08 Eh
 1-El. energy change                    ....  1.000e-05 Eh
 Orbital Gradient       TolG            ....  1.000e-05
 Orbital Rotation angle TolX            ....  1.000e-05
 DIIS Error             TolErr          ....  5.000e-07

------------------------------
INITIAL GUESS: MODEL POTENTIAL
------------------------------
Loading Hartree-Fock densities                     ... done
Calculating cut-offs                               ... done
Initializing the effective Hamiltonian             ... done
Setting up the integral package (SHARK)            ... done
Starting the Coulomb interaction                   ... done (   0.2 sec)
Making the grid                                    ... done (   0.5 sec)
Mapping shells                                     ... done
Starting the XC term evaluation                    ... done (   0.2 sec)
  promolecular density results
     # of electrons  =    199.996506599
     EX              =   -207.651022019
     EC              =     -7.051161199
     EX+EC           =   -214.702183217
Transforming the Hamiltonian                       ... done (   0.1 sec)
Diagonalizing the Hamiltonian                      ... done (   0.1 sec)
Back transforming the eigenvectors                 ... done (   0.0 sec)
Now organizing SCF variables                       ... done
                      ------------------
                      INITIAL GUESS DONE (   1.2 sec)
                      ------------------
             **** ENERGY FILE WAS UPDATED (rf_mecn_freq_r2s_P_A.en.tmp) ****
Finished Guess after   1.8 sec
Maximum memory used throughout the entire GUESS-calculation: 49.7 MB


           ************************************************************
           *        Program running with 20 parallel MPI-processes    *
           *              working on a common directory               *
           ************************************************************

-------------------------------------------------------------------------------------------
                                      ORCA LEAN-SCF
                              memory conserving SCF solver
-------------------------------------------------------------------------------------------

--------------------
CPCM SOLVATION MODEL
--------------------
CPCM parameters:
  Epsilon                                         ...      35.6880
  Refrac                                          ...       1.3442
  Rsolv                                           ...       1.3000
  Surface type                                    ... GAUSSIAN VDW
  Discretization scheme                           ... Constant charge density
    Threshold for H atoms                         ...       5.0000 (charges/Ang^2)
    Threshold for non-H atoms                     ...       5.0000 (charges/Ang^2)
  Epsilon function type                           ...         CPCM
Solvent:                                          ... ACETONITRILE
SMD-CDS solvent descriptors:
  Soln                                            ...       1.3442
  Soln25                                          ...       1.3416
  Sola                                            ...       0.0700
  Solb                                            ...       0.3200
  Solg                                            ...      41.2500
  Solc                                            ...       0.0000
  Solh                                            ...       0.0000
Radii:
  Scheme                                          ... Element-dependent radii
  Radius for C  used is    3.4960 Bohr (=   1.8500 Ang.)
  Radius for O  used is    4.0969 Bohr (=   2.1680 Ang.)
  Radius for F  used is    3.2692 Bohr (=   1.7300 Ang.)
  Radius for H  used is    2.2677 Bohr (=   1.2000 Ang.)
Calculating surface                               ...        done! (  0.0s)
Cavity surface points                             ...         2161
Cavity Volume                                     ...    2151.8460
Cavity Surface-area                               ...    1105.8642
Calculating surface distance matrix               ...        done! (  0.0s)
Performing Cholesky decomposition & store         ...        done! (  0.1s)
Overall time for CPCM initialization              ...                 0.1s

----------------------------------------D-I-I-S--------------------------------------------
Iteration    Energy (Eh)           Delta-E    RMSDP     MaxDP     DIISErr   Damp  Time(sec)
-------------------------------------------------------------------------------------------
               ***  Starting incremental Fock matrix formation  ***
    1    -1953.0787167923936067     0.00e+00  3.74e-04  2.62e-02  2.73e-01  0.850   6.8
    2    -1953.1962294394734272    -1.18e-01  3.40e-04  2.26e-02  1.85e-01  0.850   4.0
                               ***Turning on AO-DIIS***
    3    -1953.2603995937179207    -6.42e-02  1.68e-04  8.32e-03  1.09e-01  0.850   3.9
    4    -1953.2992439259214734    -3.88e-02  1.16e-04  8.01e-03  8.39e-02  0.850   3.7
    5    -1953.3270191700739815    -2.78e-02  9.65e-05  8.22e-03  7.15e-02  0.850   3.8
    6    -1953.3491315528472114    -2.21e-02  8.58e-05  7.66e-03  6.21e-02  0.850   3.6
    7    -1953.3675889754704258    -1.85e-02  7.78e-05  6.84e-03  5.29e-02  0.850   3.4
    8    -1953.3831831733305080    -1.56e-02  6.74e-05  5.92e-03  4.36e-02  0.850   3.5
    9    -1953.3961460114969668    -1.30e-02  5.67e-05  5.03e-03  3.60e-02  0.850   3.4
   10    -1953.4068752549856072    -1.07e-02  4.76e-05  4.28e-03  3.03e-02  0.850   3.4
   11    -1953.4158027434068572    -8.93e-03  4.03e-05  3.65e-03  2.56e-02  0.850   3.4
   12    -1953.4232749246875755    -7.47e-03  2.29e-04  2.09e-02  2.14e-02  0.000   3.3
   13    -1953.4638530378397263    -4.06e-02  1.10e-05  1.34e-03  2.80e-03  0.000   3.8
   14    -1953.4638676079794095    -1.46e-05  5.02e-06  4.92e-04  1.55e-03  0.000   3.1
                              *** Initializing SOSCF ***
---------------------------------------S-O-S-C-F--------------------------------------
Iteration    Energy (Eh)           Delta-E    RMSDP     MaxDP     MaxGrad    Time(sec)
--------------------------------------------------------------------------------------
   15    -1953.4638727186411415    -5.11e-06  1.80e-06  1.55e-04  2.40e-04     3.2
               *** Restarting incremental Fock matrix formation ***
   16    -1953.4638848246086127    -1.21e-05  2.38e-06  1.40e-04  2.42e-05     6.7
   17    -1953.4638848440390575    -1.94e-08  5.90e-07  3.49e-05  3.80e-05     4.0
   18    -1953.4638848941467586    -5.01e-08  6.04e-07  3.47e-05  9.27e-06     3.1
   19    -1953.4638848600206984     3.41e-08  1.74e-07  1.51e-05  4.72e-06     3.3
   20    -1953.4638848476497515     1.24e-08  1.82e-07  1.55e-05  5.45e-07     2.9
                  *** Gradient check signals convergence ***

               *****************************************************
               *                     SUCCESS                       *
               *           SCF CONVERGED AFTER  20 CYCLES          *
               *****************************************************

Recomputing exchange energy using gridx3       ... done (    8.661 sec)
Old exchange energy                            :    -20.939027207 Eh
New exchange energy                            :    -20.939040945 Eh
Exchange energy change after final integration :     -0.000013739 Eh
Total energy after final integration           :  -1953.463898586 Eh

SMD CDS free energy correction energy :                 3.31716     Kcal/mol
Total Energy after SMD CDS correction =             -1953.458612355 Eh
             **** ENERGY FILE WAS UPDATED (rf_mecn_freq_r2s_P_A.en.tmp) ****

----------------
TOTAL SCF ENERGY
----------------

Total Energy       :      -1953.45861235498774 Eh          -53156.31126 eV

Components:
Nuclear Repulsion  :       2918.48929544219300 Eh           79416.13117 eV
Electronic Energy  :      -4871.94196937557535 Eh         -132572.28083 eV
One Electron Energy:      -8526.28227961998709 Eh         -232011.93609 eV
Two Electron Energy:       3654.34031024441174 Eh           99439.65526 eV
CPCM Dielectric    :         -0.01121091426752 Eh              -0.30506 eV
SMD CDS (Gcds)     :          0.00528623129054 Eh               0.14385 eV

Virial components:
Potential Energy   :      -3900.46072320792473 Eh         -106136.93218 eV
Kinetic Energy     :       1947.00211085293699 Eh           52980.62092 eV
Virial Ratio       :          2.00331612455172

DFT components:
N(Alpha)           :       99.999968770521 electrons
N(Beta)            :       99.999968770521 electrons
N(Total)           :      199.999937541041 electrons
E(X)               :     -189.447137095384 Eh       
E(C)               :       -6.975783137458 Eh       
E(XC)              :     -196.422920232841 Eh       

CPCM Solvation Model Properties:
Surface-charge          :         -0.00815404085804
Corrected charge        :         -0.00000000000000
Outlying charge corr.   :          0.00000363971433 Eh               0.00010 eV
Free-energy (cav+disp)  :          0.00528623129054 Eh               0.14385 eV

---------------
SCF CONVERGENCE
---------------

  Last Energy change         ...   -1.2371e-08  Tolerance :   1.0000e-08
  Last MAX-Density change    ...    1.5502e-05  Tolerance :   1.0000e-07
  Last RMS-Density change    ...    1.8178e-07  Tolerance :   5.0000e-09
  Last DIIS Error            ...    2.4024e-04  Tolerance :   5.0000e-07
  Last Orbital Gradient      ...    5.4520e-07  Tolerance :   1.0000e-05
  Last Orbital Rotation      ...    1.8795e-06  Tolerance :   1.0000e-05


----------------
ORBITAL ENERGIES
----------------

  NO   OCC          E(Eh)            E(eV) 
   0   2.0000     -24.735552      -673.0886 
   1   2.0000     -24.735496      -673.0871 
   2   2.0000     -24.735389      -673.0841 
   3   2.0000     -24.735352      -673.0831 
   4   2.0000     -24.734674      -673.0647 
   5   2.0000     -24.734421      -673.0578 
   6   2.0000     -24.734314      -673.0549 
   7   2.0000     -24.733961      -673.0453 
   8   2.0000     -24.733244      -673.0258 
   9   2.0000     -24.733034      -673.0201 
  10   2.0000     -24.732941      -673.0176 
  11   2.0000     -24.732436      -673.0038 
  12   2.0000     -24.732383      -673.0024 
  13   2.0000     -24.723864      -672.7705 
  14   2.0000     -24.721953      -672.7186 
  15   2.0000     -19.197269      -522.3842 
  16   2.0000     -19.141382      -520.8635 
  17   2.0000     -10.442262      -284.1484 
  18   2.0000     -10.391302      -282.7617 
  19   2.0000     -10.390983      -282.7530 
  20   2.0000     -10.390018      -282.7268 
  21   2.0000     -10.388167      -282.6764 
  22   2.0000     -10.385723      -282.6099 
  23   2.0000     -10.376339      -282.3545 
  24   2.0000     -10.326688      -281.0035 
  25   2.0000      -1.364038       -37.1174 
  26   2.0000      -1.346118       -36.6297 
  27   2.0000      -1.333530       -36.2872 
  28   2.0000      -1.321884       -35.9703 
  29   2.0000      -1.318590       -35.8807 
  30   2.0000      -1.316552       -35.8252 
  31   2.0000      -1.309850       -35.6428 
  32   2.0000      -1.277543       -34.7637 
  33   2.0000      -1.273022       -34.6407 
  34   2.0000      -1.268866       -34.5276 
  35   2.0000      -1.267469       -34.4896 
  36   2.0000      -1.262714       -34.3602 
  37   2.0000      -1.259789       -34.2806 
  38   2.0000      -1.259320       -34.2678 
  39   2.0000      -1.251633       -34.0587 
  40   2.0000      -1.152977       -31.3741 
  41   2.0000      -1.066071       -29.0093 
  42   2.0000      -0.852774       -23.2052 
  43   2.0000      -0.836300       -22.7569 
  44   2.0000      -0.811402       -22.0794 
  45   2.0000      -0.777202       -21.1487 
  46   2.0000      -0.735028       -20.0011 
  47   2.0000      -0.697685       -18.9850 
  48   2.0000      -0.679928       -18.5018 
  49   2.0000      -0.662420       -18.0254 
  50   2.0000      -0.646400       -17.5894 
  51   2.0000      -0.643797       -17.5186 
  52   2.0000      -0.633236       -17.2312 
  53   2.0000      -0.628689       -17.1075 
  54   2.0000      -0.627176       -17.0663 
  55   2.0000      -0.622059       -16.9271 
  56   2.0000      -0.611979       -16.6528 
  57   2.0000      -0.606961       -16.5163 
  58   2.0000      -0.602881       -16.4052 
  59   2.0000      -0.597800       -16.2670 
  60   2.0000      -0.592336       -16.1183 
  61   2.0000      -0.585999       -15.9458 
  62   2.0000      -0.578733       -15.7481 
  63   2.0000      -0.574983       -15.6461 
  64   2.0000      -0.563876       -15.3439 
  65   2.0000      -0.512822       -13.9546 
  66   2.0000      -0.508900       -13.8479 
  67   2.0000      -0.506452       -13.7812 
  68   2.0000      -0.500897       -13.6301 
  69   2.0000      -0.498194       -13.5566 
  70   2.0000      -0.493801       -13.4370 
  71   2.0000      -0.490404       -13.3446 
  72   2.0000      -0.487710       -13.2713 
  73   2.0000      -0.483761       -13.1638 
  74   2.0000      -0.478203       -13.0126 
  75   2.0000      -0.478074       -13.0091 
  76   2.0000      -0.475079       -12.9276 
  77   2.0000      -0.471137       -12.8203 
  78   2.0000      -0.468387       -12.7455 
  79   2.0000      -0.463715       -12.6183 
  80   2.0000      -0.460441       -12.5292 
  81   2.0000      -0.456237       -12.4148 
  82   2.0000      -0.451489       -12.2856 
  83   2.0000      -0.448915       -12.2156 
  84   2.0000      -0.444782       -12.1031 
  85   2.0000      -0.442136       -12.0311 
  86   2.0000      -0.441099       -12.0029 
  87   2.0000      -0.438409       -11.9297 
  88   2.0000      -0.435687       -11.8556 
  89   2.0000      -0.434162       -11.8142 
  90   2.0000      -0.430578       -11.7166 
  91   2.0000      -0.429415       -11.6850 
  92   2.0000      -0.428324       -11.6553 
  93   2.0000      -0.423233       -11.5168 
  94   2.0000      -0.415701       -11.3118 
  95   2.0000      -0.397486       -10.8161 
  96   2.0000      -0.368570       -10.0293 
  97   2.0000      -0.351491        -9.5646 
  98   2.0000      -0.336543        -9.1578 
  99   2.0000      -0.303807        -8.2670 
 100   0.0000      -0.063739        -1.7344 
 101   0.0000      -0.015531        -0.4226 
 102   0.0000      -0.000943        -0.0257 
 103   0.0000       0.025697         0.6993 
 104   0.0000       0.040260         1.0955 
 105   0.0000       0.058551         1.5932 
 106   0.0000       0.081171         2.2088 
 107   0.0000       0.089510         2.4357 
 108   0.0000       0.110043         2.9944 
 109   0.0000       0.117354         3.1934 
 110   0.0000       0.129946         3.5360 
*Only the first 10 virtual orbitals were printed.

                    ********************************
                    * MULLIKEN POPULATION ANALYSIS *
                    ********************************

-----------------------
MULLIKEN ATOMIC CHARGES
-----------------------
   0 C :    0.280953
   1 O :   -0.365180
   2 O :   -0.325997
   3 C :    0.414693
   4 C :    0.287253
   5 C :    0.321049
   6 C :    0.327294
   7 C :    0.298486
   8 C :    0.331697
   9 C :    0.470973
  10 F :   -0.173609
  11 F :   -0.169753
  12 F :   -0.165504
  13 F :   -0.167709
  14 F :   -0.162929
  15 F :   -0.161529
  16 F :   -0.161484
  17 F :   -0.161806
  18 F :   -0.162384
  19 F :   -0.161431
  20 F :   -0.162319
  21 F :   -0.158508
  22 F :   -0.155397
  23 F :   -0.152783
  24 F :   -0.153353
  25 H :    0.389275
Sum of atomic charges:    0.0000000

--------------------------------
MULLIKEN REDUCED ORBITAL CHARGES
--------------------------------
  0 C s       :     3.067192  s :     3.067192
      pz      :     0.759733  p :     2.363651
      px      :     0.853992
      py      :     0.749926
      dz2     :     0.049710  d :     0.263503
      dxz     :     0.030487
      dyz     :     0.063110
      dx2y2   :     0.064500
      dxy     :     0.055695
      f0      :     0.003103  f :     0.024702
      f+1     :     0.002335
      f-1     :     0.003668
      f+2     :     0.003907
      f-2     :     0.003818
      f+3     :     0.003035
      f-3     :     0.004835

  1 O s       :     3.786753  s :     3.786753
      pz      :     1.462419  p :     4.544045
      px      :     1.487178
      py      :     1.594448
      dz2     :     0.005343  d :     0.032543
      dxz     :     0.004616
      dyz     :     0.009197
      dx2y2   :     0.006192
      dxy     :     0.007195
      f0      :     0.000311  f :     0.001839
      f+1     :     0.000190
      f-1     :     0.000297
      f+2     :     0.000390
      f-2     :     0.000414
      f+3     :     0.000038
      f-3     :     0.000199

  2 O s       :     3.827832  s :     3.827832
      pz      :     1.562782  p :     4.463800
      px      :     1.554624
      py      :     1.346394
      dz2     :     0.003964  d :     0.032280
      dxz     :     0.003006
      dyz     :     0.007710
      dx2y2   :     0.009356
      dxy     :     0.008244
      f0      :     0.000194  f :     0.002084
      f+1     :     0.000104
      f-1     :     0.000331
      f+2     :     0.000219
      f-2     :     0.000315
      f+3     :     0.000370
      f-3     :     0.000552

  3 C s       :     3.039039  s :     3.039039
      pz      :     0.661477  p :     2.232456
      px      :     0.945084
      py      :     0.625895
      dz2     :     0.046900  d :     0.286056
      dxz     :     0.057867
      dyz     :     0.079624
      dx2y2   :     0.041421
      dxy     :     0.060243
      f0      :     0.005654  f :     0.027756
      f+1     :     0.004766
      f-1     :     0.004749
      f+2     :     0.003663
      f-2     :     0.001617
      f+3     :     0.004843
      f-3     :     0.002464

  4 C s       :     3.151537  s :     3.151537
      pz      :     0.627247  p :     2.241406
      px      :     0.949180
      py      :     0.664979
      dz2     :     0.054502  d :     0.291731
      dxz     :     0.059848
      dyz     :     0.078858
      dx2y2   :     0.037576
      dxy     :     0.060946
      f0      :     0.004182  f :     0.028073
      f+1     :     0.005207
      f-1     :     0.007377
      f+2     :     0.002536
      f-2     :     0.001729
      f+3     :     0.004649
      f-3     :     0.002393

  5 C s       :     3.136857  s :     3.136857
      pz      :     0.593154  p :     2.219497
      px      :     0.925696
      py      :     0.700648
      dz2     :     0.070934  d :     0.294501
      dxz     :     0.063968
      dyz     :     0.067614
      dx2y2   :     0.033959
      dxy     :     0.058026
      f0      :     0.003939  f :     0.028097
      f+1     :     0.004870
      f-1     :     0.007751
      f+2     :     0.002551
      f-2     :     0.003467
      f+3     :     0.003134
      f-3     :     0.002385

  6 C s       :     3.134037  s :     3.134037
      pz      :     0.579451  p :     2.215540
      px      :     0.923148
      py      :     0.712940
      dz2     :     0.082266  d :     0.295015
      dxz     :     0.063190
      dyz     :     0.058200
      dx2y2   :     0.032132
      dxy     :     0.059227
      f0      :     0.005813  f :     0.028115
      f+1     :     0.004045
      f-1     :     0.004945
      f+2     :     0.003820
      f-2     :     0.005148
      f+3     :     0.002311
      f-3     :     0.002033

  7 C s       :     3.140931  s :     3.140931
      pz      :     0.579867  p :     2.238156
      px      :     0.940273
      py      :     0.718017
      dz2     :     0.082021  d :     0.294339
      dxz     :     0.063240
      dyz     :     0.058394
      dx2y2   :     0.032132
      dxy     :     0.058553
      f0      :     0.005745  f :     0.028088
      f+1     :     0.004082
      f-1     :     0.005037
      f+2     :     0.003745
      f-2     :     0.005135
      f+3     :     0.002310
      f-3     :     0.002035

  8 C s       :     3.101061  s :     3.101061
      pz      :     0.598796  p :     2.248784
      px      :     0.940733
      py      :     0.709255
      dz2     :     0.068642  d :     0.290276
      dxz     :     0.062588
      dyz     :     0.067726
      dx2y2   :     0.032758
      dxy     :     0.058562
      f0      :     0.003909  f :     0.028182
      f+1     :     0.004893
      f-1     :     0.007877
      f+2     :     0.002515
      f-2     :     0.003362
      f+3     :     0.003182
      f-3     :     0.002443

  9 C s       :     3.020490  s :     3.020490
      pz      :     0.635611  p :     2.108497
      px      :     0.816435
      py      :     0.656451
      dz2     :     0.071041  d :     0.359346
      dxz     :     0.070181
      dyz     :     0.085911
      dx2y2   :     0.067252
      dxy     :     0.064962
      f0      :     0.004269  f :     0.040695
      f+1     :     0.007399
      f-1     :     0.010485
      f+2     :     0.003528
      f-2     :     0.004322
      f+3     :     0.006665
      f-3     :     0.004027

 10 F s       :     3.928531  s :     3.928531
      pz      :     1.887619  p :     5.227421
      px      :     1.897005
      py      :     1.442797
      dz2     :     0.002339  d :     0.016944
      dxz     :     0.000174
      dyz     :     0.003527
      dx2y2   :     0.006633
      dxy     :     0.004272
      f0      :     0.000059  f :     0.000713
      f+1     :     0.000014
      f-1     :     0.000140
      f+2     :     0.000100
      f-2     :     0.000009
      f+3     :     0.000169
      f-3     :     0.000221

 11 F s       :     3.926404  s :     3.926404
      pz      :     1.461446  p :     5.225521
      px      :     1.901034
      py      :     1.863041
      dz2     :     0.008059  d :     0.017094
      dxz     :     0.003978
      dyz     :     0.004258
      dx2y2   :     0.000426
      dxy     :     0.000373
      f0      :     0.000296  f :     0.000734
      f+1     :     0.000160
      f-1     :     0.000210
      f+2     :     0.000036
      f-2     :     0.000027
      f+3     :     0.000002
      f-3     :     0.000003

 12 F s       :     3.929245  s :     3.929245
      pz      :     1.857467  p :     5.218268
      px      :     1.897531
      py      :     1.463270
      dz2     :     0.002282  d :     0.017270
      dxz     :     0.000366
      dyz     :     0.004439
      dx2y2   :     0.006178
      dxy     :     0.004005
      f0      :     0.000072  f :     0.000721
      f+1     :     0.000008
      f-1     :     0.000130
      f+2     :     0.000146
      f-2     :     0.000028
      f+3     :     0.000146
      f-3     :     0.000191

 13 F s       :     3.929610  s :     3.929610
      pz      :     1.439341  p :     5.220178
      px      :     1.894343
      py      :     1.886493
      dz2     :     0.008928  d :     0.017204
      dxz     :     0.004309
      dyz     :     0.003567
      dx2y2   :     0.000238
      dxy     :     0.000161
      f0      :     0.000355  f :     0.000718
      f+1     :     0.000182
      f-1     :     0.000159
      f+2     :     0.000012
      f-2     :     0.000008
      f+3     :     0.000001
      f-3     :     0.000001

 14 F s       :     3.929086  s :     3.929086
      pz      :     1.760875  p :     5.215791
      px      :     1.891282
      py      :     1.563635
      dz2     :     0.002405  d :     0.017328
      dxz     :     0.001292
      dyz     :     0.006181
      dx2y2   :     0.004162
      dxy     :     0.003288
      f0      :     0.000081  f :     0.000723
      f+1     :     0.000007
      f-1     :     0.000151
      f+2     :     0.000196
      f-2     :     0.000098
      f+3     :     0.000093
      f-3     :     0.000098

 15 F s       :     3.928752  s :     3.928752
      pz      :     1.462982  p :     5.214647
      px      :     1.896977
      py      :     1.854688
      dz2     :     0.008208  d :     0.017403
      dxz     :     0.003945
      dyz     :     0.004405
      dx2y2   :     0.000375
      dxy     :     0.000470
      f0      :     0.000310  f :     0.000728
      f+1     :     0.000148
      f-1     :     0.000207
      f+2     :     0.000024
      f-2     :     0.000036
      f+3     :     0.000002
      f-3     :     0.000002

 16 F s       :     3.929108  s :     3.929108
      pz      :     1.652119  p :     5.214263
      px      :     1.896858
      py      :     1.665286
      dz2     :     0.003594  d :     0.017387
      dxz     :     0.002173
      dyz     :     0.006890
      dx2y2   :     0.002496
      dxy     :     0.002234
      f0      :     0.000093  f :     0.000725
      f+1     :     0.000028
      f-1     :     0.000233
      f+2     :     0.000176
      f-2     :     0.000114
      f+3     :     0.000042
      f-3     :     0.000039

 17 F s       :     3.929169  s :     3.929169
      pz      :     1.541011  p :     5.214551
      px      :     1.891626
      py      :     1.781915
      dz2     :     0.005911  d :     0.017362
      dxz     :     0.003342
      dyz     :     0.005814
      dx2y2   :     0.001066
      dxy     :     0.001229
      f0      :     0.000176  f :     0.000724
      f+1     :     0.000094
      f-1     :     0.000257
      f+2     :     0.000086
      f-2     :     0.000091
      f+3     :     0.000011
      f-3     :     0.000009

 18 F s       :     3.929422  s :     3.929422
      pz      :     1.656820  p :     5.214873
      px      :     1.897433
      py      :     1.660620
      dz2     :     0.003508  d :     0.017365
      dxz     :     0.002124
      dyz     :     0.006900
      dx2y2   :     0.002565
      dxy     :     0.002269
      f0      :     0.000091  f :     0.000724
      f+1     :     0.000026
      f-1     :     0.000230
      f+2     :     0.000179
      f-2     :     0.000113
      f+3     :     0.000044
      f-3     :     0.000041

 19 F s       :     3.929064  s :     3.929064
      pz      :     1.536824  p :     5.214243
      px      :     1.892831
      py      :     1.784588
      dz2     :     0.006034  d :     0.017398
      dxz     :     0.003360
      dyz     :     0.005792
      dx2y2   :     0.001036
      dxy     :     0.001175
      f0      :     0.000182  f :     0.000726
      f+1     :     0.000095
      f-1     :     0.000259
      f+2     :     0.000083
      f-2     :     0.000088
      f+3     :     0.000010
      f-3     :     0.000009

 20 F s       :     3.928972  s :     3.928972
      pz      :     1.766129  p :     5.215381
      px      :     1.890260
      py      :     1.558992
      dz2     :     0.002353  d :     0.017244
      dxz     :     0.001213
      dyz     :     0.006097
      dx2y2   :     0.004252
      dxy     :     0.003329
      f0      :     0.000080  f :     0.000721
      f+1     :     0.000007
      f-1     :     0.000147
      f+2     :     0.000196
      f-2     :     0.000094
      f+3     :     0.000096
      f-3     :     0.000101

 21 F s       :     3.926729  s :     3.926729
      pz      :     1.459436  p :     5.213626
      px      :     1.896287
      py      :     1.857903
      dz2     :     0.008328  d :     0.017414
      dxz     :     0.003979
      dyz     :     0.004327
      dx2y2   :     0.000340
      dxy     :     0.000440
      f0      :     0.000319  f :     0.000738
      f+1     :     0.000156
      f-1     :     0.000203
      f+2     :     0.000022
      f-2     :     0.000035
      f+3     :     0.000002
      f-3     :     0.000001

 22 F s       :     3.924698  s :     3.924698
      pz      :     1.816331  p :     5.212556
      px      :     1.884136
      py      :     1.512089
      dz2     :     0.002304  d :     0.017375
      dxz     :     0.000710
      dyz     :     0.005448
      dx2y2   :     0.005398
      dxy     :     0.003516
      f0      :     0.000085  f :     0.000769
      f+1     :     0.000006
      f-1     :     0.000138
      f+2     :     0.000191
      f-2     :     0.000061
      f+3     :     0.000126
      f-3     :     0.000162

 23 F s       :     3.923198  s :     3.923198
      pz      :     1.841824  p :     5.211372
      px      :     1.628445
      py      :     1.741103
      dz2     :     0.002322  d :     0.017432
      dxz     :     0.003270
      dyz     :     0.002243
      dx2y2   :     0.003765
      dxy     :     0.005832
      f0      :     0.000082  f :     0.000781
      f+1     :     0.000089
      f-1     :     0.000058
      f+2     :     0.000050
      f-2     :     0.000171
      f+3     :     0.000153
      f-3     :     0.000179

 24 F s       :     3.923382  s :     3.923382
      pz      :     1.442497  p :     5.211627
      px      :     1.885463
      py      :     1.883667
      dz2     :     0.009355  d :     0.017560
      dxz     :     0.004049
      dyz     :     0.003750
      dx2y2   :     0.000189
      dxy     :     0.000216
      f0      :     0.000397  f :     0.000784
      f+1     :     0.000180
      f-1     :     0.000180
      f+2     :     0.000011
      f-2     :     0.000014
      f+3     :     0.000001
      f-3     :     0.000001

 25 H s       :     0.567147  s :     0.567147
      pz      :     0.013440  p :     0.043578
      px      :     0.018504
      py      :     0.011634



                     *******************************
                     * LOEWDIN POPULATION ANALYSIS *
                     *******************************

----------------------
LOEWDIN ATOMIC CHARGES
----------------------
   0 C :   -0.496178
   1 O :    0.161326
   2 O :    0.134673
   3 C :   -0.464941
   4 C :   -0.467905
   5 C :   -0.471291
   6 C :   -0.471432
   7 C :   -0.472739
   8 C :   -0.479555
   9 C :   -0.680240
  10 F :    0.217890
  11 F :    0.223356
  12 F :    0.233211
  13 F :    0.229730
  14 F :    0.233114
  15 F :    0.234847
  16 F :    0.235043
  17 F :    0.234502
  18 F :    0.234070
  19 F :    0.234346
  20 F :    0.231254
  21 F :    0.233532
  22 F :    0.231676
  23 F :    0.232361
  24 F :    0.234209
  25 H :    0.235143

-------------------------------
LOEWDIN REDUCED ORBITAL CHARGES
-------------------------------
  0 C s       :     2.758532  s :     2.758532
      pz      :     0.831501  p :     2.641124
      px      :     0.888451
      py      :     0.921172
      dz2     :     0.166715  d :     0.944385
      dxz     :     0.115809
      dyz     :     0.239910
      dx2y2   :     0.213210
      dxy     :     0.208740
      f0      :     0.021053  f :     0.152137
      f+1     :     0.016012
      f-1     :     0.020173
      f+2     :     0.026250
      f-2     :     0.019340
      f+3     :     0.019254
      f-3     :     0.030054

  1 O s       :     3.319604  s :     3.319604
      pz      :     1.445794  p :     4.442712
      px      :     1.415119
      py      :     1.581799
      dz2     :     0.010976  d :     0.071137
      dxz     :     0.014770
      dyz     :     0.020976
      dx2y2   :     0.013174
      dxy     :     0.011242
      f0      :     0.000737  f :     0.005220
      f+1     :     0.000403
      f-1     :     0.001006
      f+2     :     0.000879
      f-2     :     0.001152
      f+3     :     0.000249
      f-3     :     0.000795

  2 O s       :     3.400013  s :     3.400013
      pz      :     1.461349  p :     4.389276
      px      :     1.478995
      py      :     1.448932
      dz2     :     0.009395  d :     0.069503
      dxz     :     0.004795
      dyz     :     0.016225
      dx2y2   :     0.017743
      dxy     :     0.021345
      f0      :     0.000637  f :     0.006535
      f+1     :     0.000310
      f-1     :     0.000994
      f+2     :     0.000764
      f-2     :     0.000919
      f+3     :     0.001568
      f-3     :     0.001344

  3 C s       :     2.753802  s :     2.753802
      pz      :     0.804643  p :     2.592051
      px      :     1.010935
      py      :     0.776473
      dz2     :     0.207886  d :     0.934520
      dxz     :     0.173480
      dyz     :     0.204141
      dx2y2   :     0.182175
      dxy     :     0.166838
      f0      :     0.038172  f :     0.184569
      f+1     :     0.026182
      f-1     :     0.036381
      f+2     :     0.021679
      f-2     :     0.013317
      f+3     :     0.027568
      f-3     :     0.021270

  4 C s       :     2.756519  s :     2.756519
      pz      :     0.778954  p :     2.586895
      px      :     1.003533
      py      :     0.804408
      dz2     :     0.231886  d :     0.940130
      dxz     :     0.159985
      dyz     :     0.202850
      dx2y2   :     0.169867
      dxy     :     0.175542
      f0      :     0.035573  f :     0.184361
      f+1     :     0.029401
      f-1     :     0.041794
      f+2     :     0.020551
      f-2     :     0.012711
      f+3     :     0.025359
      f-3     :     0.018972

  5 C s       :     2.755162  s :     2.755162
      pz      :     0.750899  p :     2.589702
      px      :     1.000810
      py      :     0.837993
      dz2     :     0.246093  d :     0.941358
      dxz     :     0.150226
      dyz     :     0.221765
      dx2y2   :     0.133493
      dxy     :     0.189780
      f0      :     0.032680  f :     0.185069
      f+1     :     0.028923
      f-1     :     0.044995
      f+2     :     0.024859
      f-2     :     0.021216
      f+3     :     0.017318
      f-3     :     0.015077

  6 C s       :     2.755222  s :     2.755222
      pz      :     0.737688  p :     2.590069
      px      :     1.001158
      py      :     0.851223
      dz2     :     0.246551  d :     0.941120
      dxz     :     0.142574
      dyz     :     0.238815
      dx2y2   :     0.116579
      dxy     :     0.196602
      f0      :     0.034073  f :     0.185020
      f+1     :     0.026078
      f-1     :     0.040467
      f+2     :     0.031139
      f-2     :     0.028608
      f+3     :     0.012823
      f-3     :     0.011832

  7 C s       :     2.755394  s :     2.755394
      pz      :     0.737160  p :     2.590761
      px      :     1.003312
      py      :     0.850289
      dz2     :     0.246959  d :     0.941665
      dxz     :     0.142052
      dyz     :     0.238739
      dx2y2   :     0.117045
      dxy     :     0.196870
      f0      :     0.033980  f :     0.184920
      f+1     :     0.026184
      f-1     :     0.040678
      f+2     :     0.030941
      f-2     :     0.028516
      f+3     :     0.012881
      f-3     :     0.011741

  8 C s       :     2.759367  s :     2.759367
      pz      :     0.753235  p :     2.595524
      px      :     1.007755
      py      :     0.834534
      dz2     :     0.244889  d :     0.939679
      dxz     :     0.151687
      dyz     :     0.220233
      dx2y2   :     0.131000
      dxy     :     0.191870
      f0      :     0.032823  f :     0.184984
      f+1     :     0.029114
      f-1     :     0.045034
      f+2     :     0.024796
      f-2     :     0.020495
      f+3     :     0.017304
      f-3     :     0.015419

  9 C s       :     2.754059  s :     2.754059
      pz      :     0.786714  p :     2.495525
      px      :     0.907209
      py      :     0.801602
      dz2     :     0.279368  d :     1.165082
      dxz     :     0.191658
      dyz     :     0.242923
      dx2y2   :     0.222280
      dxy     :     0.228853
      f0      :     0.038935  f :     0.265574
      f+1     :     0.041776
      f-1     :     0.055709
      f+2     :     0.029684
      f-2     :     0.032144
      f+3     :     0.037293
      f-3     :     0.030033

 10 F s       :     3.593803  s :     3.593803
      pz      :     1.811757  p :     5.154959
      px      :     1.820142
      py      :     1.523060
      dz2     :     0.004385  d :     0.031780
      dxz     :     0.000237
      dyz     :     0.005661
      dx2y2   :     0.012728
      dxy     :     0.008768
      f0      :     0.000133  f :     0.001569
      f+1     :     0.000036
      f-1     :     0.000276
      f+2     :     0.000221
      f-2     :     0.000016
      f+3     :     0.000457
      f-3     :     0.000430

 11 F s       :     3.590980  s :     3.590980
      pz      :     1.532755  p :     5.152047
      px      :     1.822706
      py      :     1.796586
      dz2     :     0.015265  d :     0.032020
      dxz     :     0.008276
      dyz     :     0.007057
      dx2y2   :     0.000711
      dxy     :     0.000711
      f0      :     0.000578  f :     0.001596
      f+1     :     0.000448
      f-1     :     0.000413
      f+2     :     0.000089
      f-2     :     0.000062
      f+3     :     0.000003
      f-3     :     0.000004

 12 F s       :     3.589636  s :     3.589636
      pz      :     1.792854  p :     5.143357
      px      :     1.814826
      py      :     1.535678
      dz2     :     0.004243  d :     0.032206
      dxz     :     0.000670
      dyz     :     0.007384
      dx2y2   :     0.011797
      dxy     :     0.008111
      f0      :     0.000136  f :     0.001590
      f+1     :     0.000020
      f-1     :     0.000299
      f+2     :     0.000293
      f-2     :     0.000066
      f+3     :     0.000413
      f-3     :     0.000363

 13 F s       :     3.590904  s :     3.590904
      pz      :     1.522436  p :     5.145715
      px      :     1.813493
      py      :     1.809786
      dz2     :     0.017149  d :     0.032071
      dxz     :     0.008684
      dyz     :     0.005688
      dx2y2   :     0.000326
      dxy     :     0.000224
      f0      :     0.000688  f :     0.001580
      f+1     :     0.000491
      f-1     :     0.000357
      f+2     :     0.000026
      f-2     :     0.000014
      f+3     :     0.000002
      f-3     :     0.000002

 14 F s       :     3.589500  s :     3.589500
      pz      :     1.733257  p :     5.143470
      px      :     1.812392
      py      :     1.597821
      dz2     :     0.004046  d :     0.032320
      dxz     :     0.002620
      dyz     :     0.011322
      dx2y2   :     0.007850
      dxy     :     0.006483
      f0      :     0.000163  f :     0.001596
      f+1     :     0.000014
      f-1     :     0.000339
      f+2     :     0.000381
      f-2     :     0.000247
      f+3     :     0.000254
      f-3     :     0.000198

 15 F s       :     3.588842  s :     3.588842
      pz      :     1.540492  p :     5.142299
      px      :     1.816216
      py      :     1.785590
      dz2     :     0.015273  d :     0.032410
      dxz     :     0.008007
      dyz     :     0.007847
      dx2y2   :     0.000460
      dxy     :     0.000824
      f0      :     0.000609  f :     0.001602
      f+1     :     0.000397
      f-1     :     0.000448
      f+2     :     0.000038
      f-2     :     0.000103
      f+3     :     0.000005
      f-3     :     0.000003

 16 F s       :     3.588943  s :     3.588943
      pz      :     1.663919  p :     5.142003
      px      :     1.815810
      py      :     1.662274
      dz2     :     0.005962  d :     0.032410
      dxz     :     0.004437
      dyz     :     0.013192
      dx2y2   :     0.004427
      dxy     :     0.004392
      f0      :     0.000226  f :     0.001600
      f+1     :     0.000068
      f-1     :     0.000452
      f+2     :     0.000345
      f-2     :     0.000312
      f+3     :     0.000124
      f-3     :     0.000074

 17 F s       :     3.589106  s :     3.589106
      pz      :     1.592301  p :     5.142402
      px      :     1.812400
      py      :     1.737700
      dz2     :     0.010472  d :     0.032391
      dxz     :     0.006800
      dyz     :     0.011094
      dx2y2   :     0.001727
      dxy     :     0.002297
      f0      :     0.000387  f :     0.001599
      f+1     :     0.000236
      f-1     :     0.000502
      f+2     :     0.000176
      f-2     :     0.000248
      f+3     :     0.000031
      f-3     :     0.000019

 18 F s       :     3.589543  s :     3.589543
      pz      :     1.667190  p :     5.142450
      px      :     1.816075
      py      :     1.659185
      dz2     :     0.005812  d :     0.032341
      dxz     :     0.004322
      dyz     :     0.013182
      dx2y2   :     0.004553
      dxy     :     0.004473
      f0      :     0.000222  f :     0.001597
      f+1     :     0.000062
[...]
 24:    258.80   0.000016    0.08  0.000019  ( 0.000719 -0.004342  0.000014)
 25:    263.29   0.000258    1.30  0.000306  ( 0.014568  0.008022 -0.005407)
 26:    286.39   0.001325    6.70  0.001444  (-0.035404  0.013480  0.002996)
 27:    307.38   0.000049    0.25  0.000049  (-0.003225 -0.000001  0.006242)
 28:    313.25   0.000109    0.55  0.000109  (-0.008562  0.005790 -0.001463)
 29:    337.39   0.000084    0.42  0.000078  (-0.007420 -0.000931 -0.004675)
 30:    350.69   0.000326    1.65  0.000290  (-0.007827 -0.007716 -0.012998)
 31:    363.59   0.000102    0.52  0.000088  (-0.001837  0.002667  0.008781)
 32:    367.44   0.000030    0.15  0.000026  (-0.003188 -0.003430 -0.001970)
 33:    372.27   0.000137    0.69  0.000115  (-0.010668  0.000639 -0.000730)
 34:    378.58   0.000758    3.83  0.000624  ( 0.022046  0.011660  0.001568)
 35:    380.30   0.000183    0.93  0.000150  (-0.006545 -0.009989 -0.002761)
 36:    414.32   0.000266    1.34  0.000200  (-0.003556  0.013510 -0.002237)
 37:    469.71   0.000574    2.90  0.000382  (-0.011949  0.004539  0.014773)
 38:    515.43   0.015489   78.27  0.009378  ( 0.093455 -0.010986 -0.022869)
 39:    522.92   0.000240    1.22  0.000144  ( 0.004333 -0.011168  0.000167)
 40:    535.52   0.002663   13.46  0.001552  ( 0.021751 -0.032806  0.001471)
 41:    560.40   0.011262   56.91  0.006271  ( 0.069459  0.032979 -0.018956)
 42:    567.75   0.003176   16.05  0.001746  ( 0.011145 -0.037041  0.015788)
 43:    587.21   0.005284   26.70  0.002808  ( 0.042394 -0.011474 -0.029649)
 44:    595.84   0.016007   80.89  0.008384  (-0.072579  0.021778 -0.051398)
 45:    607.31   0.002160   10.91  0.001110  (-0.026816 -0.000122  0.019762)
 46:    625.55   0.005505   27.82  0.002746  (-0.010015 -0.022232  0.046384)
 47:    646.53   0.060124  303.84  0.029020  (-0.158318  0.055339 -0.029885)
 48:    658.93   0.004168   21.06  0.001974  (-0.010414 -0.004804 -0.042924)
 49:    691.35   0.004417   22.32  0.001994  (-0.031907 -0.025634  0.017855)
 50:    713.84   0.007097   35.87  0.003103  (-0.048861 -0.006617 -0.025911)
 51:    733.00   0.001552    7.84  0.000661  ( 0.023505  0.001726 -0.010257)
 52:    764.91   0.001966    9.94  0.000802  (-0.015334 -0.007833  0.022488)
 53:    785.10   0.006666   33.69  0.002650  ( 0.024519  0.011168 -0.043861)
 54:    885.18   0.001780    8.99  0.000627  (-0.020526  0.014347  0.000484)
 55:   1021.61   0.014643   74.00  0.004473  (-0.065693  0.010958 -0.006105)
 56:   1113.42   0.008903   44.99  0.002495  (-0.026892 -0.041562 -0.006690)
 57:   1139.59   0.007219   36.48  0.001977  ( 0.023444  0.000663  0.037774)
 58:   1151.10   0.055475  280.35  0.015039  ( 0.003181 -0.098599 -0.072853)
 59:   1155.97   0.078800  398.22  0.021273  (-0.040472 -0.103418  0.094549)
 60:   1164.81   0.000491    2.48  0.000132  ( 0.005743 -0.009277 -0.003548)
 61:   1171.54   0.084861  428.85  0.022605  (-0.009112  0.149412  0.014059)
 62:   1172.83   0.000932    4.71  0.000248  (-0.010704 -0.008418  0.007906)
 63:   1177.32   0.046544  235.21  0.012337  ( 0.006841  0.082891  0.073615)
 64:   1184.75   0.169874  858.47  0.044745  (-0.001879  0.031181  0.209211)
 65:   1189.58   0.105637  533.84  0.027712  ( 0.032688 -0.162039 -0.019664)
 66:   1195.84   0.072182  364.78  0.018836  (-0.006661 -0.002530  0.137061)
 67:   1207.83   0.022187  112.13  0.005732  (-0.041382 -0.010693  0.062495)
 68:   1212.77   0.074083  374.39  0.019063  ( 0.004457 -0.032202  0.134186)
 69:   1227.09   0.005380   27.19  0.001368  (-0.020155  0.028442  0.012369)
 70:   1250.01   0.009435   47.68  0.002355  (-0.035673  0.005869  0.032379)
 71:   1280.52   0.002026   10.24  0.000494  (-0.003915 -0.018909 -0.010998)
 72:   1297.82   0.002999   15.16  0.000721  ( 0.017771 -0.014723 -0.013731)
 73:   1320.44   0.010213   51.61  0.002414  (-0.042001  0.018049 -0.017992)
 74:   1375.27   0.021194  107.11  0.004809  (-0.069124  0.001809  0.005272)
 75:   1422.10   0.015690   79.29  0.003443  ( 0.039275 -0.033833 -0.027493)
 76:   1845.80   0.093732  473.68  0.015847  (-0.039904 -0.104320 -0.058070)
 77:   3650.61   0.050908  257.27  0.004352  (-0.052235 -0.002889  0.040186)

* The epsilon (eps) is given for a Dirac delta lineshape.
** The dipole moment derivative (T) already includes vibrational overlap.

The first frequency considered to be a vibration is 6
The total number of vibrations considered is 72


--------------------------
THERMOCHEMISTRY AT 298.15K
--------------------------

Temperature         ...   298.15 K
Pressure            ...     1.00 atm
Total Mass          ...   414.06 AMU
Quasi RRHO          ...     True
Cut-Off Frequency   ...     1.00 cm^-1

Throughout the following assumptions are being made:
  (1) The electronic state is orbitally nondegenerate
  (2) There are no thermally accessible electronically excited states
  (3) Hindered rotations indicated by low frequency modes are not
      treated as such but are treated as vibrations and this may
      cause some error
  (4) All equations used are the standard statistical mechanics
      equations for an ideal gas
  (5) All vibrations are strictly harmonic

freq.      17.71  E(vib)   ...       0.57 
freq.      32.20  E(vib)   ...       0.55 
freq.      34.73  E(vib)   ...       0.54 
freq.      46.83  E(vib)   ...       0.53 
freq.      57.98  E(vib)   ...       0.51 
freq.      64.67  E(vib)   ...       0.50 
freq.      67.55  E(vib)   ...       0.50 
freq.      73.36  E(vib)   ...       0.49 
freq.     116.77  E(vib)   ...       0.44 
freq.     134.83  E(vib)   ...       0.42 
freq.     159.66  E(vib)   ...       0.39 
freq.     186.14  E(vib)   ...       0.37 
freq.     200.42  E(vib)   ...       0.35 
freq.     203.97  E(vib)   ...       0.35 
freq.     207.95  E(vib)   ...       0.34 
freq.     230.71  E(vib)   ...       0.32 
freq.     243.02  E(vib)   ...       0.31 
freq.     253.32  E(vib)   ...       0.30 
freq.     258.80  E(vib)   ...       0.30 
freq.     263.29  E(vib)   ...       0.29 
freq.     286.39  E(vib)   ...       0.27 
freq.     307.38  E(vib)   ...       0.26 
freq.     313.25  E(vib)   ...       0.25 
freq.     337.39  E(vib)   ...       0.24 
freq.     350.69  E(vib)   ...       0.23 
freq.     363.59  E(vib)   ...       0.22 
freq.     367.44  E(vib)   ...       0.21 
freq.     372.27  E(vib)   ...       0.21 
freq.     378.58  E(vib)   ...       0.21 
freq.     380.30  E(vib)   ...       0.21 
freq.     414.32  E(vib)   ...       0.19 
freq.     469.71  E(vib)   ...       0.16 
freq.     515.43  E(vib)   ...       0.13 
freq.     522.92  E(vib)   ...       0.13 
freq.     535.52  E(vib)   ...       0.12 
freq.     560.40  E(vib)   ...       0.11 
freq.     567.75  E(vib)   ...       0.11 
freq.     587.21  E(vib)   ...       0.10 
freq.     595.84  E(vib)   ...       0.10 
freq.     607.31  E(vib)   ...       0.10 
freq.     625.55  E(vib)   ...       0.09 
freq.     646.53  E(vib)   ...       0.09 
freq.     658.93  E(vib)   ...       0.08 
freq.     691.35  E(vib)   ...       0.07 
freq.     713.84  E(vib)   ...       0.07 
freq.     733.00  E(vib)   ...       0.06 
freq.     764.91  E(vib)   ...       0.06 
freq.     785.10  E(vib)   ...       0.05 
freq.     885.18  E(vib)   ...       0.04 
freq.    1021.61  E(vib)   ...       0.02 
freq.    1113.42  E(vib)   ...       0.01 
freq.    1139.59  E(vib)   ...       0.01 
freq.    1151.10  E(vib)   ...       0.01 
freq.    1155.97  E(vib)   ...       0.01 
freq.    1164.81  E(vib)   ...       0.01 
freq.    1171.54  E(vib)   ...       0.01 
freq.    1172.83  E(vib)   ...       0.01 
freq.    1177.32  E(vib)   ...       0.01 
freq.    1184.75  E(vib)   ...       0.01 
freq.    1189.58  E(vib)   ...       0.01 
freq.    1195.84  E(vib)   ...       0.01 
freq.    1207.83  E(vib)   ...       0.01 
freq.    1212.77  E(vib)   ...       0.01 
freq.    1227.09  E(vib)   ...       0.01 
freq.    1250.01  E(vib)   ...       0.01 
freq.    1280.52  E(vib)   ...       0.01 
freq.    1297.82  E(vib)   ...       0.01 
freq.    1320.44  E(vib)   ...       0.01 
freq.    1375.27  E(vib)   ...       0.01 
freq.    1422.10  E(vib)   ...       0.00 
freq.    1845.80  E(vib)   ...       0.00 
freq.    3650.61  E(vib)   ...       0.00 

------------
INNER ENERGY
------------

The inner energy is: U= E(el) + E(ZPE) + E(vib) + E(rot) + E(trans)
    E(el)   - is the total energy from the electronic structure calculation
              = E(kin-el) + E(nuc-el) + E(el-el) + E(nuc-nuc)
    E(ZPE)  - the the zero temperature vibrational energy from the frequency calculation
    E(vib)  - the the finite temperature correction to E(ZPE) due to population
              of excited vibrational states
    E(rot)  - is the rotational thermal energy
    E(trans)- is the translational thermal energy

Summary of contributions to the inner energy U:
Electronic energy                ...  -1953.46729479 Eh
Zero point energy                ...      0.11190491 Eh      70.22 kcal/mol
Thermal vibrational correction   ...      0.02038255 Eh      12.79 kcal/mol
Thermal rotational correction    ...      0.00141627 Eh       0.89 kcal/mol
Thermal translational correction ...      0.00141627 Eh       0.89 kcal/mol
-----------------------------------------------------------------------
Total thermal energy                  -1953.33217479 Eh


Summary of corrections to the electronic energy:
(perhaps to be used in another calculation)
Total thermal correction                  0.02321509 Eh      14.57 kcal/mol
Non-thermal (ZPE) correction              0.11190491 Eh      70.22 kcal/mol
-----------------------------------------------------------------------
Total correction                          0.13512000 Eh      84.79 kcal/mol


--------
ENTHALPY
--------

The enthalpy is H = U + kB*T
                kB is Boltzmann's constant
Total thermal energy              ...  -1953.33217479 Eh 
Thermal Enthalpy correction       ...      0.00094421 Eh       0.59 kcal/mol
-----------------------------------------------------------------------
Total Enthalpy                    ...  -1953.33123058 Eh


Note: Only C1 symmetry has been detected, increase convergence thresholds 
      if your molecule has a higher symmetry. Symmetry factor of 1.0 is   
      used for the rotational entropy correction. 
 

Note: Rotational entropy computed according to Herzberg 
Infrared and Raman Spectra, Chapter V,1, Van Nostrand Reinhold, 1945 
Point Group:  C1, Symmetry Number:   1  
Rotational constants in cm-1:     0.021429     0.003744     0.003703 

Vibrational entropy computed according to the QRRHO of S. Grimme
Chem.Eur.J. 2012 18 9955 using a reference frequency of 100.0 cm-1


-------
ENTROPY
-------

The entropy contributions are T*S = T*(S(el)+S(vib)+S(rot)+S(trans))
     S(el)   - electronic entropy
     S(vib)  - vibrational entropy
     S(rot)  - rotational entropy
     S(trans)- translational entropy
The entropies will be listed as multiplied by the temperature to get
units of energy

Electronic entropy                ...      0.00000000 Eh      0.00 kcal/mol
Vibrational entropy               ...      0.03651140 Eh     22.91 kcal/mol
Rotational entropy                ...      0.01660595 Eh     10.42 kcal/mol
Translational entropy             ...      0.02088355 Eh     13.10 kcal/mol
-----------------------------------------------------------------------
Final entropy term                ...      0.07400090 Eh     46.44 kcal/mol

In case the symmetry of your molecule has not been determined correctly
or in case you have a reason to use a different symmetry number we print 
out the resulting rotational entropy values for sn=1,12:

 non-linear molecules -----------------------------------
|  sn= 1 | S(rot)=       0.01660595 Eh     10.42 kcal/mol|
|  sn= 2 | S(rot)=       0.01595150 Eh     10.01 kcal/mol|
|  sn= 3 | S(rot)=       0.01556866 Eh      9.77 kcal/mol|
|  sn= 4 | S(rot)=       0.01529704 Eh      9.60 kcal/mol|
|  sn= 5 | S(rot)=       0.01508635 Eh      9.47 kcal/mol|
|  sn= 6 | S(rot)=       0.01491421 Eh      9.36 kcal/mol|
|  sn= 7 | S(rot)=       0.01476866 Eh      9.27 kcal/mol|
|  sn= 8 | S(rot)=       0.01464258 Eh      9.19 kcal/mol|
|  sn= 9 | S(rot)=       0.01453138 Eh      9.12 kcal/mol|
|  sn=10 | S(rot)=       0.01443190 Eh      9.06 kcal/mol|
|  sn=11 | S(rot)=       0.01434191 Eh      9.00 kcal/mol|
|  sn=12 | S(rot)=       0.01425975 Eh      8.95 kcal/mol|
 linear molecules ---------------------------------------
|  Dinfh | S(rot)=       0.01061187 Eh      6.66 kcal/mol|
|  Cinfv | S(rot)=       0.01126632 Eh      7.07 kcal/mol|
 --------------------------------------------------------


-------------------
GIBBS FREE ENERGY
-------------------

The Gibbs free energy is G = H - T*S

Total enthalpy                    ...  -1953.33123058 Eh 
Total entropy correction          ...     -0.07400090 Eh    -46.44 kcal/mol
-----------------------------------------------------------------------
Final Gibbs free energy         ...  -1953.40523148 Eh

For completeness - the Gibbs free energy minus the electronic energy
G-E(el)                           ...      0.06206331 Eh     38.95 kcal/mol


Maximum memory used throughout the entire PROP-calculation: 338.0 MB

--------------------------------
SUGGESTED CITATIONS FOR THIS RUN
--------------------------------

Below you find a list of papers that are relevant to this ORCA run
We neither can nor want to force you to cite these papers, but we appreciate if you do
You receive ORCA, which is the product of decades of hard work by many enthusiastic individuals, for free
The only thing we kindly ask in return is that you cite our papers,
We deeply appreciate it, if you show your appreciation for ORCA by not just citing the generic ORCA reference.

Please note that relegating all ORCA citations to the supporting information does *not* help us.
SI sections are not indexed - citations you put there will not count into any citation statistics
But we need these citations in order to attract the funding resources that allow us to do what we are doing

Therefore, if you are a happy ORCA user, please consider citing a few of the papers listed below in the main body of your paper

In addition to the list printed below, the program has created the file rf_mecn_freq_r2s_P_A.bibtex that contains the list in bibtex format
You can import this file easily into all common literature databanks and citation aid programs


List of essential papers. We consider these as the minimum necessary citations

  1. Neese,F.
     Software update: the ORCA program system, version 5.0
     WIRES Comput. Molec. Sci., 2022 12(1)e1606
     doi.org/10.1002/wcms.1606

List of papers to cite with high priority. The work reported in these papers was absolutely
necessary for this run to complete.
Our perspective: the developers of density functionals and basis sets usually get cited in chemistry papers
Good! But without the algorithms to do something with them, the functionals or basis sets would not do anything.
Hence, in our opinion, the algorithm design and method developments papers are equally worthy of getting cited

  1. Neese,F.
     An improvement of the resolution of the identity approximation for the formation of the Coulomb matrix
     J. Comp. Chem., 2003 24(14)1740-1747
     doi.org/10.1002/jcc.10318
  2. Neese,F.; Wennmohs,F.; Hansen,A.; Becker,U.
     Efficient, approximate and parallel Hartree-Fock and hybrid DFT calculations. A 'chain-of-spheres' algorithm for the Hartree-Fock exchange
     Chem. Phys., 2009 356(1-3)98-109
     doi.org/10.1016/j.chemphys.2008.10.036
  3. Bykov,D.; Petrenko,T.; Izsak,R.; Kossmann,S.; Becker,U.; Valeev,E.; Neese,F.
     Efficient implementation of the analytic second derivatives of Hartree-Fock and hybrid DFT energies: a detailed analysis of different approximations
     Molec. Phys., 2015 113 1961-1977
     doi.org/10.1080/00268976.2015.1025114
  4. Garcia-Rates,M.; Neese,F.
     Efficient implementation of the analytical second derivatives of hartree-fock and hybrid DFT energies within the framework of the conductor-like polarizable continuum model
     J. Comput. Chem., 2019 40 1816-1828
     doi.org/10.1002/jcc.25833
  5. Garcia-Rates,M.; Neese,F.
     Effect of the Solute Cavity on the Solvation Energy and its Derivatives within the Framework of the Gaussian Charge Scheme
     J. Comput. Chem., 2020 41 922-939
     doi.org/10.1002/jcc.26139
  6. Helmich-Paris,B.; de Souza,B.; Neese,F.; Izsák,R.
     An improved chain of spheres for exchange algorithm
     J. Chem. Phys., 2021 155 104109
     doi.org/doi: 10.1063/5.0058766.
  7. Neese,F.
     The SHARK Integral Generation and Digestion System
     J. Comp. Chem., 2022  1-16
     doi.org/10.1002/jcc.26942
  8. Lehtola,S.; Steigemann,C.; Oliveira,M.; Marques,M.
     Recent developments in Libxc - A comprehensive library of functionals for density functional theory
     Software X, 2018 7 
     doi.org/10.1016/j.softx.2017.11.002
  9. Grimme,S.; Antony,J.; Ehrlich,S.; Krieg,H.
     A consistent and accurate ab initio parametrization of density functional dispersion correction (DFT-D) for the 94 elements H-Pu
     J. Chem. Phys., 2010 132 154104
     doi.org/10.1063/1.3382344
 10. Grimme,S.; Ehrlich,S.; Goerigk,L.
     Effect of the damping function in dispersion corrected density functional theory
     J. Comput. Chem., 2011 32(7)1456-1465
     doi.org/10.1002/jcc.21759
 11. Bursch,M.; Neugebauer,H.; Ehlert,S.; Grimme,S.
     Dispersion corrected r2SCAN based global hybrid functionals: r2SCANh, r2SCAN0, and r2SCAN50
     J. Phys. Chem., 2022 156(13)134105
     doi.org/10.1063/5.0086040

List of suggested additional citations. These are papers that are important in the 'surrounding' of 
of this run, or papers that preceded the highly important papers. If you like your results we are grateful for a citation.

  1. Izsak,R.; Neese,F.
     An overlap fitted chain of spheres exchange method
     J. Chem. Phys., 2011 135 144105
     doi.org/10.1063/1.3646921
  2. Izsak,R.; Hansen,A.; Neese,F.
     The resolution of identity and chain of spheres approximations for the LPNO-CCSD singles Fock term
     Molec. Phys., 2012 110 2413-2417
     doi.org/10.1080/00268976.2012.687466
  3. Neese,F.
     The ORCA program system
     WIRES Comput. Molec. Sci., 2012 2(1)73-78
     doi.org/10.1002/wcms.81
  4. Izsak,R.; Neese,F.; Klopper,W.
     Robust fitting techniques in the chain of spheres approximation to the Fock exchange: The role of the complementary space
     J. Chem. Phys., 2013 139 
     doi.org/10.1063/1.4819264
  5. Neese,F.
     Software update: the ORCA program system, version 4.0
     WIRES Comput. Molec. Sci., 2018 8(1)1-6
     doi.org/10.1002/wcms.1327
  6. Neese,F.; Wennmohs,F.; Becker,U.; Riplinger,C.
     The ORCA quantum chemistry program package
     J. Chem. Phys., 2020 152 Art. No. L224108
     doi.org/10.1063/5.0004608
  7. Wittmann,L.; Neugebauer,H.; Grimme,S.; Bursch,M.
     Dispersion-corrected r2SCAN based double-hybrid functionals
     J. Chem. Phys., 2023 159(22)224103
     doi.org/10.1063/5.0174988

List of optional additional citations

  1. Neese,F.
     Approximate second-order SCF convergence for spin unrestricted wavefunctions
     Chem. Phys. Lett., 2000 325(1-3)93-98
     doi.org/10.1016/s0009-2614(00)00662-x

Timings for individual modules:

Sum of individual times          ...     1026.294 sec (=  17.105 min)
Startup calculation              ...        4.355 sec (=   0.073 min)   0.4 %
SCF iterations                   ...       89.448 sec (=   1.491 min)   8.7 %
Property integrals               ...      289.335 sec (=   4.822 min)  28.2 %
SCF Response                     ...      375.185 sec (=   6.253 min)  36.6 %
Property calculations            ...      267.971 sec (=   4.466 min)  26.1 %
                             ****ORCA TERMINATED NORMALLY****
TOTAL RUN TIME: 0 days 0 hours 17 minutes 7 seconds 326 msec
