
                                 *****************
                                 * O   R   C   A *
                                 *****************

                                            #,                                       
                                            ###                                      
                                            ####                                     
                                            #####                                    
                                            ######                                   
                                           ########,                                 
                                     ,,################,,,,,                         
                               ,,#################################,,                 
                          ,,##########################################,,             
                       ,#########################################, ''#####,          
                    ,#############################################,,   '####,        
                  ,##################################################,,,,####,       
                ,###########''''           ''''###############################       
              ,#####''   ,,,,##########,,,,          '''####'''          '####       
            ,##' ,,,,###########################,,,                        '##       
           ' ,,###''''                  '''############,,,                           
         ,,##''                                '''############,,,,        ,,,,,,###''
      ,#''                                            '''#######################'''  
     '                                                          ''''####''''         
             ,#######,   #######,   ,#######,      ##                                
            ,#'     '#,  ##    ##  ,#'     '#,    #''#        ######   ,####,        
            ##       ##  ##   ,#'  ##            #'  '#       #        #'  '#        
            ##       ##  #######   ##           ,######,      #####,   #    #        
            '#,     ,#'  ##    ##  '#,     ,#' ,#      #,         ##   #,  ,#        
             '#######'   ##     ##  '#######'  #'      '#     #####' # '####'        



                  #######################################################
                  #                        -***-                        #
                  #          Department of theory and spectroscopy      #
                  #    Directorship and core code : Frank Neese         #
                  #        Max Planck Institute fuer Kohlenforschung    #
                  #                Kaiser Wilhelm Platz 1               #
                  #                 D-45470 Muelheim/Ruhr               #
                  #                      Germany                        #
                  #                                                     #
                  #                  All rights reserved                #
                  #                        -***-                        #
                  #######################################################


                         Program Version 5.0.3 -  RELEASE  -


 With contributions from (in alphabetic order):
   Daniel Aravena         : Magnetic Suceptibility
   Michael Atanasov       : Ab Initio Ligand Field Theory (pilot matlab implementation)
   Alexander A. Auer      : GIAO ZORA, VPT2 properties, NMR spectrum
   Ute Becker             : Parallelization
   Giovanni Bistoni       : ED, misc. LED, open-shell LED, HFLD
   Martin Brehm           : Molecular dynamics
   Dmytro Bykov           : SCF Hessian
   Vijay G. Chilkuri      : MRCI spin determinant printing, contributions to CSF-ICE
   Dipayan Datta          : RHF DLPNO-CCSD density
   Achintya Kumar Dutta   : EOM-CC, STEOM-CC
   Dmitry Ganyushin       : Spin-Orbit,Spin-Spin,Magnetic field MRCI
   Miquel Garcia          : C-PCM and meta-GGA Hessian, CC/C-PCM, Gaussian charge scheme
   Yang Guo               : DLPNO-NEVPT2, F12-NEVPT2, CIM, IAO-localization
   Andreas Hansen         : Spin unrestricted coupled pair/coupled cluster methods
   Benjamin Helmich-Paris : MC-RPA, TRAH-SCF, COSX integrals
   Lee Huntington         : MR-EOM, pCC
   Robert Izsak           : Overlap fitted RIJCOSX, COSX-SCS-MP3, EOM
   Marcus Kettner         : VPT2
   Christian Kollmar      : KDIIS, OOCD, Brueckner-CCSD(T), CCSD density, CASPT2, CASPT2-K
   Simone Kossmann        : Meta GGA functionals, TD-DFT gradient, OOMP2, MP2 Hessian
   Martin Krupicka        : Initial AUTO-CI
   Lucas Lang             : DCDCAS
   Marvin Lechner         : AUTO-CI (C++ implementation), FIC-MRCC
   Dagmar Lenk            : GEPOL surface, SMD
   Dimitrios Liakos       : Extrapolation schemes; Compound Job, initial MDCI parallelization
   Dimitrios Manganas     : Further ROCIS development; embedding schemes
   Dimitrios Pantazis     : SARC Basis sets
   Anastasios Papadopoulos: AUTO-CI, single reference methods and gradients
   Taras Petrenko         : DFT Hessian,TD-DFT gradient, ASA, ECA, R-Raman, ABS, FL, XAS/XES, NRVS
   Peter Pinski           : DLPNO-MP2, DLPNO-MP2 Gradient
   Christoph Reimann      : Effective Core Potentials
   Marius Retegan         : Local ZFS, SOC
   Christoph Riplinger    : Optimizer, TS searches, QM/MM, DLPNO-CCSD(T), (RO)-DLPNO pert. Triples
   Tobias Risthaus        : Range-separated hybrids, TD-DFT gradient, RPA, STAB
   Michael Roemelt        : Original ROCIS implementation
   Masaaki Saitow         : Open-shell DLPNO-CCSD energy and density
   Barbara Sandhoefer     : DKH picture change effects
   Avijit Sen             : IP-ROCIS
   Kantharuban Sivalingam : CASSCF convergence, NEVPT2, FIC-MRCI
   Bernardo de Souza      : ESD, SOC TD-DFT
   Georgi Stoychev        : AutoAux, RI-MP2 NMR, DLPNO-MP2 response
   Willem Van den Heuvel  : Paramagnetic NMR
   Boris Wezisla          : Elementary symmetry handling
   Frank Wennmohs         : Technical directorship


 We gratefully acknowledge several colleagues who have allowed us to
 interface, adapt or use parts of their codes:
   Stefan Grimme, W. Hujo, H. Kruse, P. Pracht,  : VdW corrections, initial TS optimization,
                  C. Bannwarth, S. Ehlert          DFT functionals, gCP, sTDA/sTD-DF
   Ed Valeev, F. Pavosevic, A. Kumar             : LibInt (2-el integral package), F12 methods
   Garnet Chan, S. Sharma, J. Yang, R. Olivares  : DMRG
   Ulf Ekstrom                                   : XCFun DFT Library
   Mihaly Kallay                                 : mrcc  (arbitrary order and MRCC methods)
   Jiri Pittner, Ondrej Demel                    : Mk-CCSD
   Frank Weinhold                                : gennbo (NPA and NBO analysis)
   Christopher J. Cramer and Donald G. Truhlar   : smd solvation model
   Lars Goerigk                                  : TD-DFT with DH, B97 family of functionals
   V. Asgeirsson, H. Jonsson                     : NEB implementation
   FAccTs GmbH                                   : IRC, NEB, NEB-TS, DLPNO-Multilevel, CI-OPT
                                                   MM, QMMM, 2- and 3-layer-ONIOM, Crystal-QMMM,
                                                   LR-CPCM, SF, NACMEs, symmetry and pop. for TD-DFT,
                                                   nearIR, NL-DFT gradient (VV10), updates on ESD,
                                                   ML-optimized integration grids
   S Lehtola, MJT Oliveira, MAL Marques          : LibXC Library
   Liviu Ungur et al                             : ANISO software


 Your calculation uses the libint2 library for the computation of 2-el integrals
 For citations please refer to: http://libint.valeyev.net

 Your ORCA version has been built with support for libXC version: 5.1.0
 For citations please refer to: https://tddft.org/programs/libxc/

 This ORCA versions uses:
   CBLAS   interface :  Fast vector & matrix operations
   LAPACKE interface :  Fast linear algebra routines
   SCALAPACK package :  Parallel linear algebra routines
   Shared memory     :  Shared parallel matrices
   BLAS/LAPACK       :  OpenBLAS 0.3.15  USE64BITINT DYNAMIC_ARCH NO_AFFINITY SkylakeX SINGLE_THREADED
        Core in use  :  SkylakeX
   Copyright (c) 2011-2014, The OpenBLAS Project


Your calculation utilizes the atom-pairwise dispersion correction
with the Becke-Johnson damping scheme (D3BJ)
Cite in your paper:
S.Grimme, S.Ehrlich, L.Goerigk, J Comput Chem, (2011), 32, 1456–1465 
S.Grimme, J.Antony, S.Ehrlich and H.Krieg, J.Chem.Phys., 132, (2010), 154104 
   

Your calculation utilizes the SMD solvation module
Please cite in your paper:
A.V. Marenich, C.J. Cramer, D.G. Truhlar J. Phys. Chem. B, 113, (2009), 6378 

================================================================================

----- Orbital basis set information -----
Your calculation utilizes the basis: def2-TZVP
   F. Weigend and R. Ahlrichs, Phys. Chem. Chem. Phys. 7, 3297 (2005).

----- AuxJ basis set information -----
Your calculation utilizes the auxiliary basis: def2/J
   F. Weigend, Phys. Chem. Chem. Phys. 8, 1057 (2006).

================================================================================
                                        WARNINGS
                       Please study these warnings very carefully!
================================================================================

WARNING: Old DensityContainer found on disk!
         Will remove this file - 
         If you want to keep old densities, please start your calculation with a different basename. 


WARNING: your system is open-shell and RHF/RKS was chosen
  ===> : WILL SWITCH to UHF/UKS


WARNING: Geometry Optimization
  ===> : Switching off AutoStart
         For restart on a previous wavefunction, please use MOREAD

INFO   : the flag for use of the SHARK integral package has been found!

================================================================================
                                       INPUT FILE
================================================================================
NAME = rf_mecn_opt_B3L_C8_D_B.inp
|  1> !B3LYP def2-TZVP opt d3 TightSCF SlowConv defgrid2
|  2>  
|  3> %pal
|  4> nprocs 20
|  5> end
|  6>  
|  7> %scf
|  8> MaxIter 1500
|  9> end
| 10>  
| 11> %maxcore 8000
| 12>  
| 13> !CPCM
| 14> %cpcm smd true
| 15> SMDsolvent "ACETONITRILE"
| 16> end
| 17>  
| 18> * xyz -1 2
| 19> 6        4.790427000     -0.033865800     -0.529943200
| 20> 8        5.449345000     -1.206924000     -0.894594600
| 21> 8        4.978223000      1.323071000     -0.737377200
| 22> 6        3.506687600     -0.338741600      0.376153800
| 23> 6        2.222300000      0.400524800     -0.110681600
| 24> 6        0.900506800     -0.386389800      0.175703000
| 25> 6       -0.395261200      0.487294000      0.065549000
| 26> 6       -1.705693600     -0.364773800     -0.068373600
| 27> 6       -3.005136200      0.445344800      0.258164000
| 28> 6       -4.319880200     -0.214526000     -0.270540800
| 29> 9        3.211587400     -1.692050400      0.412735200
| 30> 9        3.741061800      0.055285800      1.689948800
| 31> 9        2.125696800      1.616867800      0.483236600
| 32> 9        2.314152400      0.589704000     -1.455769200
| 33> 9        0.794028800     -1.413561400     -0.700839000
| 34> 9        0.958350600     -0.884509000      1.435093400
| 35> 9       -0.498373400      1.260265600      1.173340200
| 36> 9       -0.299075000      1.289512600     -1.020910800
| 37> 9       -1.641790400     -1.418189000      0.779523800
| 38> 9       -1.792381400     -0.831391600     -1.336863600
| 39> 9       -2.918792200      1.679227200     -0.295171200
| 40> 9       -3.119771000      0.573779800      1.598579800
| 41> 9       -5.365669800      0.430528600      0.260394200
| 42> 9       -4.396020400     -0.128550600     -1.602941800
| 43> *
| 44> 
| 45>                          ****END OF INPUT****
================================================================================

                       *****************************
                       * Geometry Optimization Run *
                       *****************************

Geometry optimization settings:
Update method            Update   .... BFGS
Choice of coordinates    CoordSys .... Z-matrix Internals
Initial Hessian          InHess   .... Almoef's Model

Convergence Tolerances:
Energy Change            TolE     ....  5.0000e-06 Eh
Max. Gradient            TolMAXG  ....  3.0000e-04 Eh/bohr
RMS Gradient             TolRMSG  ....  1.0000e-04 Eh/bohr
Max. Displacement        TolMAXD  ....  4.0000e-03 bohr
RMS Displacement         TolRMSD  ....  2.0000e-03 bohr
Strict Convergence                ....  False
------------------------------------------------------------------------------
                        ORCA OPTIMIZATION COORDINATE SETUP
------------------------------------------------------------------------------

The optimization will be done in new redundant internal coordinates
Making redundant internal coordinates   ...  (new redundants) done
Evaluating the initial hessian          ...  (Almloef) done
Evaluating the coordinates              ...  done
Calculating the B-matrix                .... done
Calculating the G-matrix                .... done
Diagonalizing the G-matrix              .... done
Small eigenvalue found = 6.266e-03
Small eigenvalue found = 1.719e-02
The first mode is                       ....   56
The number of degrees of freedom        ....   66

    -----------------------------------------------------------------
                    Redundant Internal Coordinates


    -----------------------------------------------------------------
         Definition                    Initial Value    Approx d2E/dq
    -----------------------------------------------------------------
      1. B(O   1,C   0)                  1.3940         0.551454   
      2. B(O   2,C   0)                  1.3855         0.568952   
      3. B(C   3,C   0)                  1.6006         0.288221   
      4. B(C   4,C   3)                  1.5599         0.334759   
      5. B(C   5,C   4)                  1.5647         0.328824   
      6. B(C   6,C   5)                  1.5667         0.326486   
      7. B(C   7,C   6)                  1.5688         0.323927   
      8. B(C   8,C   7)                  1.5657         0.327637   
      9. B(C   9,C   8)                  1.5632         0.330714   
     10. B(F  10,C   3)                  1.3856         0.528443   
     11. B(F  11,C   3)                  1.3915         0.517117   
     12. B(F  12,C   4)                  1.3570         0.586881   
     13. B(F  13,C   4)                  1.3614         0.577499   
     14. B(F  14,C   5)                  1.3545         0.592326   
     15. B(F  15,C   5)                  1.3556         0.590092   
     16. B(F  16,C   6)                  1.3547         0.591865   
     17. B(F  17,C   6)                  1.3540         0.593567   
     18. B(F  18,C   7)                  1.3538         0.593973   
     19. B(F  19,C   7)                  1.3544         0.592672   
     20. B(F  20,C   8)                  1.3550         0.591238   
     21. B(F  21,C   8)                  1.3514         0.599114   
     22. B(F  22,C   9)                  1.3385         0.628179   
     23. B(F  23,C   9)                  1.3373         0.630929   
     24. A(O   1,C   0,O   2)          136.1318         0.413163   
     25. A(O   2,C   0,C   3)          112.3347         0.371210   
     26. A(O   1,C   0,C   3)          111.5249         0.369222   
     27. A(C   4,C   3,F  10)          107.2033         0.374492   
     28. A(C   0,C   3,F  10)          111.8265         0.364982   
     29. A(F  10,C   3,F  11)          106.7094         0.399684   
     30. A(C   4,C   3,F  11)          107.4072         0.373095   
     31. A(C   0,C   3,C   4)          113.1687         0.341363   
     32. A(C   0,C   3,F  11)          110.2099         0.363632   
     33. A(C   3,C   4,F  12)          110.2926         0.381351   
     34. A(F  12,C   4,F  13)          108.2194         0.415201   
     35. A(C   3,C   4,C   5)          113.5839         0.349005   
     36. A(C   5,C   4,F  13)          107.9208         0.379109   
     37. A(C   3,C   4,F  13)          108.5818         0.380286   
     38. A(C   5,C   4,F  12)          108.0911         0.380169   
     39. A(F  14,C   5,F  15)          109.0206         0.417483   
     40. A(C   4,C   5,C   6)          113.9128         0.347536   
     41. A(C   6,C   5,F  15)          107.7906         0.380059   
     42. A(C   4,C   5,F  15)          108.5900         0.380529   
     43. A(C   6,C   5,F  14)          108.2026         0.380308   
     44. A(C   4,C   5,F  14)          109.2282         0.380779   
     45. A(C   5,C   6,C   7)          113.2023         0.346660   
     46. A(F  16,C   6,F  17)          108.8752         0.417862   
     47. A(C   7,C   6,F  17)          108.2186         0.379927   
     48. A(C   5,C   6,F  17)          109.1523         0.380446   
     49. A(C   7,C   6,F  16)          108.4284         0.379738   
     50. A(C   5,C   6,F  16)          108.8835         0.380256   
     51. A(C   8,C   7,F  18)          108.1296         0.380723   
     52. A(C   6,C   7,F  18)          109.2524         0.379972   
     53. A(F  18,C   7,F  19)          108.7561         0.418014   
     54. A(C   6,C   7,C   8)          113.2298         0.346865   
     55. A(C   8,C   7,F  19)          108.6915         0.380579   
     56. A(C   6,C   7,F  19)          108.6955         0.379828   
     57. A(C   9,C   8,F  21)          107.7127         0.381912   
     58. A(C   7,C   8,F  21)          109.0521         0.381293   
     59. A(C   9,C   8,F  20)          107.4499         0.381036   
     60. A(C   7,C   8,C   9)          114.1471         0.348078   
     61. A(F  20,C   8,F  21)          108.8987         0.418476   
     62. A(C   7,C   8,F  20)          109.4572         0.380419   
     63. A(F  22,C   9,F  23)          108.6464         0.426961   
     64. A(C   8,C   9,F  23)          110.9604         0.385362   
     65. A(C   8,C   9,F  22)          108.6349         0.385069   
     66. D(C   4,C   3,C   0,O   1)   -131.0839         0.006601   
     67. D(F  11,C   3,C   0,O   2)    -70.4768         0.006601   
     68. D(F  10,C   3,C   0,O   1)     -9.8890         0.006601   
     69. D(F  10,C   3,C   0,O   2)    171.0025         0.006601   
     70. D(C   4,C   3,C   0,O   2)     49.8076         0.006601   
     71. D(F  11,C   3,C   0,O   1)    108.6317         0.006601   
     72. D(F  12,C   4,C   3,F  10)    146.3851         0.009100   
     73. D(F  13,C   4,C   3,C   0)     28.5784         0.009100   
     74. D(F  13,C   4,C   3,F  11)    150.4470         0.009100   
     75. D(C   5,C   4,C   3,F  11)    -89.4885         0.009100   
     76. D(C   5,C   4,C   3,C   0)    148.6429         0.009100   
     77. D(F  13,C   4,C   3,F  10)    -95.1911         0.009100   
     78. D(F  12,C   4,C   3,F  11)     32.0233         0.009100   
     79. D(C   5,C   4,C   3,F  10)     24.8733         0.009100   
     80. D(F  12,C   4,C   3,C   0)    -89.8453         0.009100   
     81. D(F  15,C   5,C   4,F  13)    164.2540         0.008811   
     82. D(F  15,C   5,C   4,C   3)     43.8158         0.008811   
     83. D(F  14,C   5,C   4,F  12)    162.3014         0.008811   
     84. D(F  14,C   5,C   4,C   3)    -74.9661         0.008811   
     85. D(C   6,C   5,C   4,F  13)    -75.6292         0.008811   
     86. D(F  14,C   5,C   4,F  13)     45.4721         0.008811   
     87. D(F  15,C   5,C   4,F  12)    -78.9166         0.008811   
     88. D(C   6,C   5,C   4,F  12)     41.2001         0.008811   
     89. D(C   6,C   5,C   4,C   3)    163.9326         0.008811   
     90. D(F  16,C   6,C   5,F  15)     44.2190         0.008700   
     91. D(F  16,C   6,C   5,F  14)    161.9826         0.008700   
     92. D(F  16,C   6,C   5,C   4)    -76.3465         0.008700   
     93. D(C   7,C   6,C   5,F  15)    -76.4529         0.008700   
     94. D(C   7,C   6,C   5,F  14)     41.3107         0.008700   
     95. D(F  17,C   6,C   5,C   4)     42.3872         0.008700   
     96. D(C   7,C   6,C   5,C   4)    162.9815         0.008700   
     97. D(F  17,C   6,C   5,F  15)    162.9527         0.008700   
     98. D(F  17,C   6,C   5,F  14)    -79.2837         0.008700   
     99. D(F  19,C   7,C   6,F  17)     44.3783         0.008578   
    100. D(F  19,C   7,C   6,F  16)    162.3257         0.008578   
    101. D(F  19,C   7,C   6,C   5)    -76.7446         0.008578   
    102. D(F  18,C   7,C   6,F  17)    162.9167         0.008578   
    103. D(F  18,C   7,C   6,F  16)    -79.1358         0.008578   
    104. D(F  18,C   7,C   6,C   5)     41.7939         0.008578   
    105. D(C   8,C   7,C   6,F  17)    -76.5134         0.008578   
    106. D(C   8,C   7,C   6,F  16)     41.4341         0.008578   
    107. D(C   8,C   7,C   6,C   5)    162.3638         0.008578   
    108. D(F  21,C   8,C   7,F  19)    162.0243         0.008755   
    109. D(F  21,C   8,C   7,F  18)     44.1231         0.008755   
    110. D(F  21,C   8,C   7,C   6)    -77.0818         0.008755   
    111. D(F  20,C   8,C   7,F  19)    -78.9355         0.008755   
    112. D(F  20,C   8,C   7,F  18)    163.1633         0.008755   
    113. D(F  20,C   8,C   7,C   6)     41.9584         0.008755   
    114. D(C   9,C   8,C   7,F  19)     41.5227         0.008755   
    115. D(C   9,C   8,C   7,F  18)    -76.3785         0.008755   
    116. D(C   9,C   8,C   7,C   6)    162.4166         0.008755   
    117. D(F  23,C   9,C   8,F  21)    167.4828         0.008360   
    118. D(F  23,C   9,C   8,F  20)     50.3013         0.008360   
    119. D(F  23,C   9,C   8,C   7)    -71.2711         0.008360   
    120. D(F  22,C   9,C   8,F  21)     48.1091         0.008360   
    121. D(F  22,C   9,C   8,F  20)    -69.0724         0.008360   
    122. D(F  22,C   9,C   8,C   7)    169.3552         0.008360   
    -----------------------------------------------------------------

Number of atoms                         .... 24
Number of degrees of freedom            .... 122

         *************************************************************
         *                GEOMETRY OPTIMIZATION CYCLE   1            *
         *************************************************************
---------------------------------
CARTESIAN COORDINATES (ANGSTROEM)
---------------------------------
  C      4.790427   -0.033866   -0.529943
  O      5.449345   -1.206924   -0.894595
  O      4.978223    1.323071   -0.737377
  C      3.506688   -0.338742    0.376154
  C      2.222300    0.400525   -0.110682
  C      0.900507   -0.386390    0.175703
  C     -0.395261    0.487294    0.065549
  C     -1.705694   -0.364774   -0.068374
  C     -3.005136    0.445345    0.258164
  C     -4.319880   -0.214526   -0.270541
  F      3.211587   -1.692050    0.412735
  F      3.741062    0.055286    1.689949
  F      2.125697    1.616868    0.483237
  F      2.314152    0.589704   -1.455769
  F      0.794029   -1.413561   -0.700839
  F      0.958351   -0.884509    1.435093
  F     -0.498373    1.260266    1.173340
  F     -0.299075    1.289513   -1.020911
  F     -1.641790   -1.418189    0.779524
  F     -1.792381   -0.831392   -1.336864
  F     -2.918792    1.679227   -0.295171
  F     -3.119771    0.573780    1.598580
  F     -5.365670    0.430529    0.260394
  F     -4.396020   -0.128551   -1.602942

----------------------------
CARTESIAN COORDINATES (A.U.)
----------------------------
  NO LB      ZA    FRAG     MASS         X           Y           Z
   0 C     6.0000    0    12.011    9.052595   -0.063997   -1.001448
   1 O     8.0000    0    15.999   10.297770   -2.280756   -1.690539
   2 O     8.0000    0    15.999    9.407478    2.500242   -1.393441
   3 C     6.0000    0    12.011    6.626679   -0.640129    0.710828
   4 C     6.0000    0    12.011    4.199538    0.756882   -0.209158
   5 C     6.0000    0    12.011    1.701711   -0.730171    0.332031
   6 C     6.0000    0    12.011   -0.746935    0.920852    0.123870
   7 C     6.0000    0    12.011   -3.223294   -0.689323   -0.129207
   8 C     6.0000    0    12.011   -5.678884    0.841580    0.487859
   9 C     6.0000    0    12.011   -8.163391   -0.405395   -0.511248
  10 F     9.0000    0    18.998    6.069021   -3.197512    0.779956
  11 F     9.0000    0    18.998    7.069582    0.104475    3.193540
  12 F     9.0000    0    18.998    4.016985    3.055437    0.913185
  13 F     9.0000    0    18.998    4.373114    1.114379   -2.751005
  14 F     9.0000    0    18.998    1.500497   -2.671244   -1.324394
  15 F     9.0000    0    18.998    1.811020   -1.671480    2.711934
  16 F     9.0000    0    18.998   -0.941789    2.381557    2.217292
  17 F     9.0000    0    18.998   -0.565170    2.436826   -1.929242
  18 F     9.0000    0    18.998   -3.102534   -2.679989    1.473086
  19 F     9.0000    0    18.998   -3.387110   -1.571102   -2.526306
  20 F     9.0000    0    18.998   -5.515718    3.173280   -0.557793
  21 F     9.0000    0    18.998   -5.895513    1.084287    3.020878
  22 F     9.0000    0    18.998  -10.139646    0.813581    0.492074
  23 F     9.0000    0    18.998   -8.307275   -0.242925   -3.029121

--------------------------------
INTERNAL COORDINATES (ANGSTROEM)
--------------------------------
 C      0   0   0     0.000000000000     0.00000000     0.00000000
 O      1   0   0     1.393990356793     0.00000000     0.00000000
 O      1   2   0     1.385486802956   136.13177198     0.00000000
 C      1   2   3     1.600608594862   111.52489317   181.18992567
 C      4   1   2     1.559863783763   113.16872737   228.91614990
 C      5   4   1     1.564732561934   113.58394786   148.64287440
 C      6   5   4     1.566675459667   113.91280616   163.93256239
 C      7   6   5     1.568817348692   113.20226571   162.98152714
 C      8   7   6     1.565717094808   113.22984595   162.36375422
 C      9   8   7     1.563173062643   114.14707705   162.41661495
 F      4   1   2     1.385592665621   111.82651119   350.11101305
 F      4   1   2     1.391490625050   110.20991618   108.63170802
 F      5   4   1     1.357041377479   110.29260564   270.15468021
 F      5   4   1     1.361428031433   108.58179722    28.57841973
 F      6   5   4     1.354527570075   109.22822656   285.03385927
 F      6   5   4     1.355556277776   108.59004089    43.81583148
 F      7   6   5     1.354739297058   108.88346185   283.65347401
 F      7   6   5     1.353957667090   109.15230848    42.38718856
 F      8   7   6     1.353771473879   109.25240264    41.79387651
 F      8   7   6     1.354368423305   108.69554158   283.25540020
 F      9   8   7     1.355028009646   109.45719767    41.95842364
 F      9   8   7     1.351425618925   109.05210362   282.91820052
 F     10   9   8     1.338530275591   108.63493714   169.35523750
 F     10   9   8     1.337341214598   110.96044107   288.72891896

---------------------------
INTERNAL COORDINATES (A.U.)
---------------------------
 C      0   0   0     0.000000000000     0.00000000     0.00000000
 O      1   0   0     2.634260007667     0.00000000     0.00000000
 O      1   2   0     2.618190619750   136.13177198     0.00000000
 C      1   2   3     3.024711891890   111.52489317   181.18992567
 C      4   1   2     2.947715357535   113.16872737   228.91614990
 C      5   4   1     2.956916014884   113.58394786   148.64287440
 C      6   5   4     2.960587559506   113.91280616   163.93256239
 C      7   6   5     2.964635143173   113.20226571   162.98152714
 C      8   7   6     2.958776512386   113.22984595   162.36375422
 C      9   8   7     2.953968988318   114.14707705   162.41661495
 F      4   1   2     2.618390671194   111.82651119   350.11101305
 F      4   1   2     2.629536199263   110.20991618   108.63170802
 F      5   4   1     2.564436555835   110.29260564   270.15468021
 F      5   4   1     2.572726130452   108.58179722    28.57841973
 F      6   5   4     2.559686148288   109.22822656   285.03385927
 F      6   5   4     2.561630124115   108.59004089    43.81583148
 F      7   6   5     2.560086254300   108.88346185   283.65347401
 F      7   6   5     2.558609187723   109.15230848    42.38718856
 F      8   7   6     2.558257333546   109.25240264    41.79387651
 F      8   7   6     2.559385404477   108.69554158   283.25540020
 F      9   8   7     2.560631842023   109.45719767    41.95842364
 F      9   8   7     2.553824310132   109.05210362   282.91820052
 F     10   9   8     2.529455642830   108.63493714   169.35523750
 F     10   9   8     2.527208643196   110.96044107   288.72891896

---------------------
BASIS SET INFORMATION
---------------------
There are 3 groups of distinct atoms

 Group   1 Type C   : 11s6p2d1f contracted to 5s3p2d1f pattern {62111/411/11/1}
 Group   2 Type O   : 11s6p2d1f contracted to 5s3p2d1f pattern {62111/411/11/1}
 Group   3 Type F   : 11s6p2d1f contracted to 5s3p2d1f pattern {62111/411/11/1}

Atom   0C    basis set group =>   1
Atom   1O    basis set group =>   2
Atom   2O    basis set group =>   2
Atom   3C    basis set group =>   1
Atom   4C    basis set group =>   1
Atom   5C    basis set group =>   1
Atom   6C    basis set group =>   1
Atom   7C    basis set group =>   1
Atom   8C    basis set group =>   1
Atom   9C    basis set group =>   1
Atom  10F    basis set group =>   3
Atom  11F    basis set group =>   3
Atom  12F    basis set group =>   3
Atom  13F    basis set group =>   3
Atom  14F    basis set group =>   3
Atom  15F    basis set group =>   3
Atom  16F    basis set group =>   3
Atom  17F    basis set group =>   3
Atom  18F    basis set group =>   3
Atom  19F    basis set group =>   3
Atom  20F    basis set group =>   3
Atom  21F    basis set group =>   3
Atom  22F    basis set group =>   3
Atom  23F    basis set group =>   3
---------------------------------
AUXILIARY/J BASIS SET INFORMATION
---------------------------------
There are 3 groups of distinct atoms

 Group   1 Type C   : 12s5p4d2f1g contracted to 6s4p3d1f1g pattern {711111/2111/211/2/1}
 Group   2 Type O   : 12s5p4d2f1g contracted to 6s4p3d1f1g pattern {711111/2111/211/2/1}
 Group   3 Type F   : 12s5p4d2f1g contracted to 6s4p3d1f1g pattern {711111/2111/211/2/1}

Atom   0C    basis set group =>   1
Atom   1O    basis set group =>   2
Atom   2O    basis set group =>   2
Atom   3C    basis set group =>   1
Atom   4C    basis set group =>   1
Atom   5C    basis set group =>   1
Atom   6C    basis set group =>   1
Atom   7C    basis set group =>   1
Atom   8C    basis set group =>   1
Atom   9C    basis set group =>   1
Atom  10F    basis set group =>   3
Atom  11F    basis set group =>   3
Atom  12F    basis set group =>   3
Atom  13F    basis set group =>   3
Atom  14F    basis set group =>   3
Atom  15F    basis set group =>   3
Atom  16F    basis set group =>   3
Atom  17F    basis set group =>   3
Atom  18F    basis set group =>   3
Atom  19F    basis set group =>   3
Atom  20F    basis set group =>   3
Atom  21F    basis set group =>   3
Atom  22F    basis set group =>   3
Atom  23F    basis set group =>   3


           ************************************************************
           *        Program running with 20 parallel MPI-processes    *
           *              working on a common directory               *
           ************************************************************
------------------------------------------------------------------------------
                           ORCA GTO INTEGRAL CALCULATION
                           -- RI-GTO INTEGRALS CHOSEN --
------------------------------------------------------------------------------
------------------------------------------------------------------------------
                   ___                                                        
                  /   \      - P O W E R E D   B Y -                         
                 /     \                                                     
                 |  |  |   _    _      __       _____    __    __             
                 |  |  |  | |  | |    /  \     |  _  \  |  |  /  |          
                  \  \/   | |  | |   /    \    | | | |  |  | /  /          
                 / \  \   | |__| |  /  /\  \   | |_| |  |  |/  /          
                |  |  |   |  __  | /  /__\  \  |    /   |      \           
                |  |  |   | |  | | |   __   |  |    \   |  |\   \          
                \     /   | |  | | |  |  |  |  | |\  \  |  | \   \       
                 \___/    |_|  |_| |__|  |__|  |_| \__\ |__|  \__/        
                                                                              
                      - O R C A' S   B I G   F R I E N D -                    
                                      &                                       
                       - I N T E G R A L  F E E D E R -                       
                                                                              
 v1 FN, 2020, v2 2021                                                         
------------------------------------------------------------------------------


Reading SHARK input file rf_mecn_opt_B3L_C8_D_B.SHARKINP.tmp ... ok
----------------------
SHARK INTEGRAL PACKAGE
----------------------

Number of atoms                             ...     24
Number of basis functions                   ...    744
Number of shells                            ...    264
Maximum angular momentum                    ...      3
Integral batch strategy                     ... SHARK/LIBINT Hybrid
RI-J (if used) integral strategy            ... SPLIT-RIJ (Revised 2003 algorithm where possible)
Printlevel                                  ...      1
Contraction scheme used                     ... SEGMENTED contraction
Coulomb Range Separation                    ... NOT USED
Exchange Range Separation                   ... NOT USED
Finite Nucleus Model                        ... NOT USED
Auxiliary Coulomb fitting basis             ... AVAILABLE
   # of basis functions in Aux-J            ...   1176
   # of shells in Aux-J                     ...    360
   Maximum angular momentum in Aux-J        ...      4
Auxiliary J/K fitting basis                 ... NOT available
Auxiliary Correlation fitting basis         ... NOT available
Auxiliary 'external' fitting basis          ... NOT available
Integral threshold                          ...     2.500000e-11
Primitive cut-off                           ...     2.500000e-12
Primitive pair pre-selection threshold      ...     2.500000e-12

Calculating pre-screening integrals         ... done (  0.1 sec) Dimension = 264
Organizing shell pair data                  ... done (  0.3 sec)
Shell pair information
Total number of shell pairs                 ...     34980
Shell pairs after pre-screening             ...     21952
Total number of primitive shell pairs       ...    115968
Primitive shell pairs kept                  ...     46583
          la=0 lb=0:   4091 shell pairs
          la=1 lb=0:   5963 shell pairs
          la=1 lb=1:   2091 shell pairs
          la=2 lb=0:   3267 shell pairs
          la=2 lb=1:   2428 shell pairs
          la=2 lb=2:    688 shell pairs
          la=3 lb=0:   1477 shell pairs
          la=3 lb=1:   1167 shell pairs
          la=3 lb=2:    629 shell pairs
          la=3 lb=3:    151 shell pairs

Calculating one electron integrals          ... done (  0.0 sec)
Calculating RI/J V-Matrix + Cholesky decomp.... done (  0.1 sec)
Calculating Nuclear repulsion               ... done (  0.0 sec) ENN=   2636.152804373618 Eh

SHARK setup successfully completed in   1.0 seconds

Maximum memory used throughout the entire GTOINT-calculation: 38.8 MB


           ************************************************************
           *        Program running with 20 parallel MPI-processes    *
           *              working on a common directory               *
           ************************************************************
-------------------------------------------------------------------------------
                                 ORCA SCF
-------------------------------------------------------------------------------

------------
SCF SETTINGS
------------
Hamiltonian:
 Density Functional     Method          .... DFT(GTOs)
 Exchange Functional    Exchange        .... B88
   X-Alpha parameter    XAlpha          ....  0.666667
   Becke's b parameter  XBeta           ....  0.004200
 Correlation Functional Correlation     .... LYP
 LDA part of GGA corr.  LDAOpt          .... VWN-5
 Gradients option       PostSCFGGA      .... off
 Hybrid DFT is turned on
   Fraction HF Exchange ScalHFX         ....  0.200000
   Scaling of DF-GGA-X  ScalDFX         ....  0.720000
   Scaling of DF-GGA-C  ScalDFC         ....  0.810000
   Scaling of DF-LDA-C  ScalLDAC        ....  1.000000
   Perturbative correction              ....  0.000000
   Density functional embedding theory  .... OFF
   NL short-range parameter             ....  4.800000
 RI-approximation to the Coulomb term is turned on
   Number of AuxJ basis functions       .... 1176
   RIJ-COSX (HFX calculated with COS-X)).... on


General Settings:
 Integral files         IntName         .... rf_mecn_opt_B3L_C8_D_B
 Hartree-Fock type      HFTyp           .... UHF
 Total Charge           Charge          ....   -1
 Multiplicity           Mult            ....    2
 Number of Electrons    NEL             ....  191
 Basis Dimension        Dim             ....  744
 Nuclear Repulsion      ENuc            ....   2636.1528043736 Eh

Convergence Acceleration:
 DIIS                   CNVDIIS         .... on
   Start iteration      DIISMaxIt       ....     0
   Startup error        DIISStart       ....  0.200000
   # of expansion vecs  DIISMaxEq       ....     5
   Bias factor          DIISBfac        ....   1.050
   Max. coefficient     DIISMaxC        ....  10.000
 Trust-Rad. Augm. Hess. CNVTRAH         .... auto
   Auto Start mean grad. ratio tolernc. ....  1.125000
   Auto Start start iteration           ....    20
   Auto Start num. interpolation iter.  ....    10
   Max. Number of Micro iterations      ....    16
   Max. Number of Macro iterations      .... Maxiter - #DIIS iter
   Number of Davidson start vectors     ....     2
   Converg. threshold I  (grad. norm)   ....   1.000e-05
   Converg. threshold II (energy diff.) ....   1.000e-08
   Grad. Scal. Fac. for Micro threshold ....   0.100
   Minimum threshold for Micro iter.    ....   0.010
   NR start threshold (gradient norm)   ....   0.001
   Initial trust radius                 ....   0.400
   Minimum AH scaling param. (alpha)    ....   1.000
   Maximum AH scaling param. (alpha)    .... 1000.000
   Orbital update algorithm             .... Taylor
   White noise on init. David. guess    .... on
   Maximum white noise                  ....   0.010
   Quad. conv. algorithm                .... NR
 SOSCF                  CNVSOSCF        .... off
 Level Shifting         CNVShift        .... on
   Level shift para.    LevelShift      ....    0.2500
   Turn off err/grad.   ShiftErr        ....    0.0000
 Zerner damping         CNVZerner       .... off
 Static damping         CNVDamp         .... on
   Fraction old density DampFac         ....    0.8500
   Max. Damping (<1)    DampMax         ....    0.9800
   Min. Damping (>=0)   DampMin         ....    0.0000
   Turn off err/grad.   DampErr         ....    0.0300
 Fernandez-Rico         CNVRico         .... off

SCF Procedure:
 Maximum # iterations   MaxIter         ....  1500
 SCF integral mode      SCFMode         .... Direct
   Integral package                     .... SHARK and LIBINT hybrid scheme
 Reset frequency        DirectResetFreq ....    20
 Integral Threshold     Thresh          ....  2.500e-11 Eh
 Primitive CutOff       TCut            ....  2.500e-12 Eh

Convergence Tolerance:
 Convergence Check Mode ConvCheckMode   .... Total+1el-Energy
 Convergence forced     ConvForced      .... 0
 Energy Change          TolE            ....  1.000e-08 Eh
 1-El. energy change                    ....  1.000e-05 Eh
 DIIS Error             TolErr          ....  5.000e-07


Diagonalization of the overlap matrix:
Smallest eigenvalue                        ... 6.454e-05
Time for diagonalization                   ...    0.163 sec
Threshold for overlap eigenvalues          ... 1.000e-08
Number of eigenvalues below threshold      ... 0
Time for construction of square roots      ...    0.088 sec
Total time needed                          ...    0.255 sec

Time for model grid setup =    0.314 sec

------------------------------
INITIAL GUESS: MODEL POTENTIAL
------------------------------
Loading Hartree-Fock densities                     ... done
Calculating cut-offs                               ... done
Initializing the effective Hamiltonian             ... done
Setting up the integral package (SHARK)            ... done
Starting the Coulomb interaction                   ... done (   0.2 sec)
Reading the grid                                   ... done
Mapping shells                                     ... done
Starting the XC term evaluation                    ... done (   0.1 sec)
  promolecular density results
     # of electrons  =    190.000239354
     EX              =   -198.085859257
     EC              =     -7.132594545
     EX+EC           =   -205.218453802
Transforming the Hamiltonian                       ... done (   0.1 sec)
Diagonalizing the Hamiltonian                      ... done (   0.1 sec)
Back transforming the eigenvectors                 ... done (   0.0 sec)
Now organizing SCF variables                       ... done
                      ------------------
                      INITIAL GUESS DONE (   1.0 sec)
                      ------------------
-------------------
DFT GRID GENERATION
-------------------

General Integration Accuracy     IntAcc      ... 4.388
Radial Grid Type                 RadialGrid  ... OptM3 with GC (2021)
Angular Grid (max. ang.)         AngularGrid ... 4 (Lebedev-302)
Angular grid pruning method      GridPruning ... 4 (adaptive)
Weight generation scheme         WeightScheme... Becke
Basis function cutoff            BFCut       ... 1.0000e-11
Integration weight cutoff        WCut        ... 1.0000e-14
Angular grids for H and He will be reduced by one unit
Partially contracted basis set               ... off
Rotationally invariant grid construction     ... off

Total number of grid points                  ...   145464
Total number of batches                      ...     2283
Average number of points per batch           ...       63
Average number of grid points per atom       ...     6061
Time for grid setup =    0.966 sec

--------------------
COSX GRID GENERATION
--------------------

GRIDX 1
-------
General Integration Accuracy     IntAcc      ... 3.816
Radial Grid Type                 RadialGrid  ... OptM3 with GC (2021)
Angular Grid (max. ang.)         AngularGrid ... 1 (Lebedev-50)
Angular grid pruning method      GridPruning ... 4 (adaptive)
Weight generation scheme         WeightScheme... Becke
Basis function cutoff            BFCut       ... 1.0000e-11
Integration weight cutoff        WCut        ... 1.0000e-14
Angular grids for H and He will be reduced by one unit
Partially contracted basis set               ... on
Rotationally invariant grid construction     ... off

Total number of grid points                  ...    18276
Total number of batches                      ...      299
Average number of points per batch           ...       61
Average number of grid points per atom       ...      762
UseSFitting                                  ... on

GRIDX 2
-------
General Integration Accuracy     IntAcc      ... 4.020
Radial Grid Type                 RadialGrid  ... OptM3 with GC (2021)
Angular Grid (max. ang.)         AngularGrid ... 2 (Lebedev-110)
Angular grid pruning method      GridPruning ... 4 (adaptive)
Weight generation scheme         WeightScheme... Becke
Basis function cutoff            BFCut       ... 1.0000e-11
Integration weight cutoff        WCut        ... 1.0000e-14
Angular grids for H and He will be reduced by one unit
Partially contracted basis set               ... on
Rotationally invariant grid construction     ... off

Total number of grid points                  ...    43326
Total number of batches                      ...      692
Average number of points per batch           ...       62
Average number of grid points per atom       ...     1805
UseSFitting                                  ... on

GRIDX 3
-------
General Integration Accuracy     IntAcc      ... 4.338
Radial Grid Type                 RadialGrid  ... OptM3 with GC (2021)
Angular Grid (max. ang.)         AngularGrid ... 3 (Lebedev-194)
Angular grid pruning method      GridPruning ... 4 (adaptive)
Weight generation scheme         WeightScheme... Becke
Basis function cutoff            BFCut       ... 1.0000e-11
Integration weight cutoff        WCut        ... 1.0000e-14
Angular grids for H and He will be reduced by one unit
Partially contracted basis set               ... on
Rotationally invariant grid construction     ... off

Total number of grid points                  ...    95983
Total number of batches                      ...     1511
Average number of points per batch           ...       63
Average number of grid points per atom       ...     3999
UseSFitting                                  ... on

Time for X-Grid setup             =    1.877 sec


--------------------
CPCM SOLVATION MODEL
--------------------
CPCM parameters:
  Epsilon                                         ...      35.6880
  Refrac                                          ...       1.3442
  Rsolv                                           ...       1.3000
  Surface type                                    ... GAUSSIAN VDW
  Epsilon function type                           ...         CPCM
Solvent:                                     ... ACETONITRILE
SMD-CDS solvent descriptors:
  Soln                                       ...    1.3442
  Soln25                                     ...    1.3416
  Sola                                       ...    0.0700
  Solb                                       ...    0.3200
  Solg                                       ...   41.2500
  Solc                                       ...    0.0000
  Solh                                       ...    0.0000
Radii:
 Radius for C  used is    3.4960 Bohr (=   1.8500 Ang.)
 Radius for O  used is    4.0969 Bohr (=   2.1680 Ang.)
 Radius for F  used is    3.2692 Bohr (=   1.7300 Ang.)
Calculating surface                               ...        done! (  0.0s)
GEPOL surface points                              ...         1255
GEPOL Volume                                      ...    2140.3920
GEPOL Surface-area                                ...    1105.6671
Calculating surface distance matrix               ...        done! (  0.0s)
Performing Cholesky decomposition & store         ...        done! (  0.1s)
Overall time for CPCM initialization              ...                 0.1s
--------------
SCF ITERATIONS
--------------
ITER       Energy         Delta-E        Max-DP      RMS-DP      [F,P]     Damp
               ***  Starting incremental Fock matrix formation  ***
  0  -1852.6154256528   0.000000000000 0.03979139  0.00020653  0.1694366 0.8500
  1  -1852.7965381302  -0.181112477345 0.06250299  0.00023425  0.1123573 0.8500
                               ***Turning on DIIS***
  2  -1852.8894245427  -0.092886412502 0.04821468  0.00017192  0.0648522 0.8500
  3  -1852.9401504572  -0.050725914542 0.01950928  0.00008089  0.0344374 0.8500
  4  -1852.9784726826  -0.038322225327 0.05271819  0.00027758  0.0240525 0.0000
  5  -1853.1724109489  -0.193938266378 0.03550565  0.00011968  0.0057862 0.0000
  6  -1853.1739485900  -0.001537641049 0.01417383  0.00004786  0.0049345 0.0000
  7  -1853.1743593567  -0.000410766699 0.00337921  0.00001245  0.0020406 0.0000
  8  -1853.1744146695  -0.000055312829 0.00171073  0.00000766  0.0006663 0.0000
               *** Restarting incremental Fock matrix formation ***
                                   *** Resetting DIIS ***
  9  -1853.1744406065  -0.000025936969 0.00077230  0.00000356  0.0005002 0.0000
 10  -1853.1744426444  -0.000002037910 0.00030466  0.00000189  0.0007286 0.0000
 11  -1853.1744464605  -0.000003816060 0.00034350  0.00000118  0.0001116 0.0000
 12  -1853.1744470513  -0.000000590859 0.00013304  0.00000065  0.0000875 0.0000
 13  -1853.1744472973  -0.000000245972 0.00006177  0.00000034  0.0000445 0.0000
 14  -1853.1744473602  -0.000000062949 0.00002256  0.00000021  0.0000151 0.0000
 15  -1853.1744473881  -0.000000027904 0.00002027  0.00000013  0.0000081 0.0000
 16  -1853.1744473902  -0.000000002075 0.00002243  0.00000012  0.0000046 0.0000
 17  -1853.1744473758   0.000000014459 0.00001353  0.00000007  0.0000027 0.0000
 18  -1853.1744474180  -0.000000042226 0.00001073  0.00000004  0.0000014 0.0000
                            ***DIIS convergence achieved***

               *****************************************************
               *                     SUCCESS                       *
               *           SCF CONVERGED AFTER  19 CYCLES          *
               *****************************************************

Old exchange energy                            =    -39.730084560 Eh
New exchange energy                            =    -39.730094915 Eh
Exchange energy change after final integration =     -0.000010355 Eh
Total energy after final integration           =  -1853.174457734 Eh
Final COS-X integration done in                =    10.856 sec

SMD CDS free energy correction energy :                 4.00857     Kcal/mol
Total Energy after SMD CDS correction =             -1853.168069675 Eh

----------------
TOTAL SCF ENERGY
----------------

Total Energy       :        -1853.16806968 Eh          -50427.26685 eV

Components:
Nuclear Repulsion  :         2636.15280437 Eh           71733.36466 eV
Electronic Energy  :        -4489.32087405 Eh         -122160.63151 eV
One Electron Energy:        -7846.85593495 Eh         -213523.80533 eV
Two Electron Energy:         3357.53506090 Eh           91363.17382 eV
Max COSX asymmetry :            0.00000063 Eh               0.00002 eV
CPCM Dielectric    :           -0.08374366 Eh              -2.27878 eV
SMD CDS (Gcds)     :            0.00638806 Eh               0.17383 eV

Virial components:
Potential Energy   :        -3699.04050725 Eh         -100656.00946 eV
Kinetic Energy     :         1845.87243758 Eh           50228.74261 eV
Virial Ratio       :            2.00395240


DFT components:
N(Alpha)           :       96.000005275893 electrons
N(Beta)            :       94.999986624799 electrons
N(Total)           :      190.999991900691 electrons
E(X)               :     -158.391942640329 Eh       
E(C)               :       -8.364802388854 Eh       
E(XC)              :     -166.756745029182 Eh       
DFET-embed. en.    :        0.000000000000 Eh       
CPCM Solvation Model Properties:
Surface-charge          :            0.98892192
Charge-correction       :           -0.00109102 Eh              -0.02969 eV
Free-energy (cav+disp)  :            0.00638806 Eh               0.17383 eV

---------------
SCF CONVERGENCE
---------------

  Last Energy change         ...    3.8560e-08  Tolerance :   1.0000e-08
  Last MAX-Density change    ...    0.0000e+00  Tolerance :   1.0000e-07
  Last RMS-Density change    ...    0.0000e+00  Tolerance :   5.0000e-09
  Last DIIS Error            ...    8.8393e-07  Tolerance :   5.0000e-07

             **** THE GBW FILE WAS UPDATED (rf_mecn_opt_B3L_C8_D_B.gbw) ****
             **** DENSITY rf_mecn_opt_B3L_C8_D_B.scfp WAS UPDATED ****
             **** ENERGY FILE WAS UPDATED (rf_mecn_opt_B3L_C8_D_B.en.tmp) ****
----------------------
UHF SPIN CONTAMINATION
----------------------

Warning: in a DFT calculation there is little theoretical justification to 
         calculate <S**2> as in Hartree-Fock theory. We will do it anyways
         but you should keep in mind that the values have only limited relevance

Expectation value of <S**2>     :     0.752341
Ideal value S*(S+1) for S=0.5   :     0.750000
Deviation                       :     0.002341

             **** THE GBW FILE WAS UPDATED (rf_mecn_opt_B3L_C8_D_B.gbw) ****
             **** DENSITY rf_mecn_opt_B3L_C8_D_B.scfp WAS UPDATED ****
----------------
ORBITAL ENERGIES
----------------
                 SPIN UP ORBITALS
  NO   OCC          E(Eh)            E(eV) 
   0   1.0000     -24.744047      -673.3197 
   1   1.0000     -24.743829      -673.3138 
   2   1.0000     -24.741459      -673.2493 
   3   1.0000     -24.740194      -673.2149 
   4   1.0000     -24.739920      -673.2075 
   5   1.0000     -24.739765      -673.2032 
   6   1.0000     -24.739676      -673.2008 
   7   1.0000     -24.736748      -673.1211 
   8   1.0000     -24.735894      -673.0979 
   9   1.0000     -24.733994      -673.0462 
  10   1.0000     -24.725927      -672.8267 
  11   1.0000     -24.721819      -672.7149 
  12   1.0000     -24.704655      -672.2478 
  13   1.0000     -24.701883      -672.1724 
  14   1.0000     -19.086662      -519.3745 
  15   1.0000     -19.085110      -519.3322 
  16   1.0000     -10.405833      -283.1571 
  17   1.0000     -10.405283      -283.1422 
  18   1.0000     -10.404993      -283.1343 
  19   1.0000     -10.399521      -282.9854 
  20   1.0000     -10.387271      -282.6520 
  21   1.0000     -10.384977      -282.5896 
  22   1.0000     -10.362993      -281.9914 
  23   1.0000     -10.294999      -280.1412 
  24   1.0000      -1.328770       -36.1577 
  25   1.0000      -1.318538       -35.8793 
  26   1.0000      -1.307288       -35.5731 
  27   1.0000      -1.300453       -35.3871 
  28   1.0000      -1.297789       -35.3146 
  29   1.0000      -1.289418       -35.0869 
  30   1.0000      -1.260695       -34.3053 
  31   1.0000      -1.257939       -34.2303 
  32   1.0000      -1.254288       -34.1309 
  33   1.0000      -1.249136       -33.9907 
  34   1.0000      -1.245136       -33.8819 
  35   1.0000      -1.244094       -33.8535 
  36   1.0000      -1.232881       -33.5484 
  37   1.0000      -1.204865       -32.7861 
  38   1.0000      -0.960545       -26.1378 
  39   1.0000      -0.901545       -24.5323 
  40   1.0000      -0.845264       -23.0008 
  41   1.0000      -0.823550       -22.4099 
  42   1.0000      -0.794355       -21.6155 
  43   1.0000      -0.755389       -20.5552 
  44   1.0000      -0.710670       -19.3383 
  45   1.0000      -0.679119       -18.4798 
  46   1.0000      -0.670532       -18.2461 
  47   1.0000      -0.639318       -17.3967 
  48   1.0000      -0.637444       -17.3457 
  49   1.0000      -0.628261       -17.0959 
  50   1.0000      -0.617566       -16.8048 
  51   1.0000      -0.616207       -16.7678 
  52   1.0000      -0.612065       -16.6551 
  53   1.0000      -0.599443       -16.3117 
  54   1.0000      -0.598538       -16.2870 
  55   1.0000      -0.592281       -16.1168 
  56   1.0000      -0.583495       -15.8777 
  57   1.0000      -0.578354       -15.7378 
  58   1.0000      -0.575993       -15.6736 
  59   1.0000      -0.566208       -15.4073 
  60   1.0000      -0.552847       -15.0437 
  61   1.0000      -0.550902       -14.9908 
  62   1.0000      -0.509330       -13.8596 
  63   1.0000      -0.508766       -13.8442 
  64   1.0000      -0.503417       -13.6987 
  65   1.0000      -0.497431       -13.5358 
  66   1.0000      -0.490355       -13.3432 
  67   1.0000      -0.484911       -13.1951 
  68   1.0000      -0.484095       -13.1729 
  69   1.0000      -0.480232       -13.0678 
  70   1.0000      -0.475562       -12.9407 
  71   1.0000      -0.474094       -12.9008 
  72   1.0000      -0.467352       -12.7173 
  73   1.0000      -0.464792       -12.6476 
  74   1.0000      -0.460026       -12.5179 
  75   1.0000      -0.457724       -12.4553 
  76   1.0000      -0.451614       -12.2890 
  77   1.0000      -0.448657       -12.2086 
  78   1.0000      -0.446823       -12.1587 
  79   1.0000      -0.446393       -12.1470 
  80   1.0000      -0.442353       -12.0370 
  81   1.0000      -0.438904       -11.9432 
  82   1.0000      -0.435123       -11.8403 
  83   1.0000      -0.432524       -11.7696 
  84   1.0000      -0.427103       -11.6221 
  85   1.0000      -0.416082       -11.3222 
  86   1.0000      -0.415485       -11.3059 
  87   1.0000      -0.400135       -10.8882 
  88   1.0000      -0.387914       -10.5557 
  89   1.0000      -0.374800       -10.1988 
  90   1.0000      -0.348140        -9.4734 
  91   1.0000      -0.342983        -9.3331 
  92   1.0000      -0.284478        -7.7410 
  93   1.0000      -0.249296        -6.7837 
  94   1.0000      -0.245329        -6.6757 
  95   1.0000      -0.242960        -6.6113 
  96   0.0000      -0.020743        -0.5644 
  97   0.0000      -0.005621        -0.1530 
  98   0.0000       0.007168         0.1950 
  99   0.0000       0.039388         1.0718 
 100   0.0000       0.052228         1.4212 
 101   0.0000       0.082312         2.2398 
 102   0.0000       0.091157         2.4805 
 103   0.0000       0.099791         2.7155 
 104   0.0000       0.112571         3.0632 
 105   0.0000       0.124753         3.3947 
 106   0.0000       0.128065         3.4848 
 107   0.0000       0.141964         3.8630 
 108   0.0000       0.150265         4.0889 
 109   0.0000       0.154478         4.2036 
 110   0.0000       0.167045         4.5455 
 111   0.0000       0.172679         4.6988 
 112   0.0000       0.182284         4.9602 
 113   0.0000       0.190851         5.1933 
 114   0.0000       0.196241         5.3400 
 115   0.0000       0.199893         5.4394 
 116   0.0000       0.202182         5.5017 
 117   0.0000       0.209604         5.7036 
 118   0.0000       0.219059         5.9609 
 119   0.0000       0.221717         6.0332 
 120   0.0000       0.229761         6.2521 
 121   0.0000       0.234953         6.3934 
 122   0.0000       0.239433         6.5153 
 123   0.0000       0.245962         6.6930 
 124   0.0000       0.248994         6.7755 
 125   0.0000       0.253797         6.9062 
 126   0.0000       0.257802         7.0152 
 127   0.0000       0.261785         7.1235 
 128   0.0000       0.273135         7.4324 
 129   0.0000       0.279178         7.5968 
 130   0.0000       0.282194         7.6789 
 131   0.0000       0.292073         7.9477 
 132   0.0000       0.293472         7.9858 
 133   0.0000       0.300713         8.1828 
 134   0.0000       0.306126         8.3301 
 135   0.0000       0.314673         8.5627 
 136   0.0000       0.317535         8.6406 
 137   0.0000       0.327265         8.9053 
 138   0.0000       0.333026         9.0621 
 139   0.0000       0.340713         9.2713 
 140   0.0000       0.345895         9.4123 
 141   0.0000       0.346028         9.4159 
 142   0.0000       0.374594        10.1932 
 143   0.0000       0.388809        10.5800 
 144   0.0000       0.393247        10.7008 
 145   0.0000       0.413088        11.2407 
 146   0.0000       0.424302        11.5458 
 147   0.0000       0.429446        11.6858 
 148   0.0000       0.431392        11.7388 
 149   0.0000       0.434673        11.8281 
 150   0.0000       0.442937        12.0529 
 151   0.0000       0.453099        12.3294 
 152   0.0000       0.460894        12.5416 
 153   0.0000       0.468649        12.7526 
 154   0.0000       0.471716        12.8361 
 155   0.0000       0.478507        13.0209 
 156   0.0000       0.484614        13.1870 
 157   0.0000       0.496607        13.5134 
 158   0.0000       0.501799        13.6547 
 159   0.0000       0.512095        13.9348 
 160   0.0000       0.524093        14.2613 
 161   0.0000       0.528212        14.3734 
 162   0.0000       0.532757        14.4971 
 163   0.0000       0.533499        14.5172 
 164   0.0000       0.547148        14.8887 
 165   0.0000       0.558652        15.2017 
 166   0.0000       0.575110        15.6495 
 167   0.0000       0.579770        15.7763 
 168   0.0000       0.583387        15.8748 
 169   0.0000       0.611889        16.6503 
 170   0.0000       0.620833        16.8937 
 171   0.0000       0.622990        16.9524 
 172   0.0000       0.639769        17.4090 
 173   0.0000       0.650605        17.7038 
 174   0.0000       0.657283        17.8856 
 175   0.0000       0.662150        18.0180 
 176   0.0000       0.672824        18.3085 
 177   0.0000       0.685230        18.6461 
 178   0.0000       0.691939        18.8286 
 179   0.0000       0.701473        19.0880 
 180   0.0000       0.707605        19.2549 
 181   0.0000       0.712058        19.3761 
 182   0.0000       0.722696        19.6656 
 183   0.0000       0.727756        19.8032 
 184   0.0000       0.730381        19.8747 
 185   0.0000       0.742728        20.2107 
 186   0.0000       0.745495        20.2859 
 187   0.0000       0.759855        20.6767 
 188   0.0000       0.763853        20.7855 
 189   0.0000       0.771189        20.9851 
 190   0.0000       0.781237        21.2585 
 191   0.0000       0.787422        21.4268 
 192   0.0000       0.797815        21.7097 
 193   0.0000       0.811915        22.0933 
 194   0.0000       0.820104        22.3162 
 195   0.0000       0.824908        22.4469 
 196   0.0000       0.835458        22.7340 
 197   0.0000       0.842606        22.9285 
 198   0.0000       0.846813        23.0430 
 199   0.0000       0.850130        23.1332 
 200   0.0000       0.858470        23.3602 
 201   0.0000       0.863622        23.5004 
 202   0.0000       0.873838        23.7783 
 203   0.0000       0.887837        24.1593 
 204   0.0000       0.897390        24.4192 
 205   0.0000       0.906822        24.6759 
 206   0.0000       0.914041        24.8723 
 207   0.0000       0.920091        25.0370 
 208   0.0000       0.929517        25.2935 
 209   0.0000       0.940494        25.5921 
 210   0.0000       0.945209        25.7205 
 211   0.0000       0.952887        25.9294 
 212   0.0000       0.959360        26.1055 
 213   0.0000       0.970307        26.4034 
 214   0.0000       0.980179        26.6720 
 215   0.0000       0.990626        26.9563 
 216   0.0000       1.002792        27.2874 
 217   0.0000       1.011698        27.5297 
 218   0.0000       1.028964        27.9995 
 219   0.0000       1.034710        28.1559 
 220   0.0000       1.046558        28.4783 
 221   0.0000       1.071126        29.1468 
 222   0.0000       1.075814        29.2744 
 223   0.0000       1.077055        29.3082 
 224   0.0000       1.090211        29.6662 
 225   0.0000       1.102779        30.0081 
 226   0.0000       1.112867        30.2827 
 227   0.0000       1.119686        30.4682 
 228   0.0000       1.121012        30.5043 
 229   0.0000       1.131951        30.8020 
 230   0.0000       1.137775        30.9604 
 231   0.0000       1.148346        31.2481 
 232   0.0000       1.160918        31.5902 
 233   0.0000       1.162201        31.6251 
 234   0.0000       1.174862        31.9696 
 235   0.0000       1.178522        32.0692 
 236   0.0000       1.182188        32.1690 
 237   0.0000       1.210775        32.9469 
 238   0.0000       1.212120        32.9835 
 239   0.0000       1.225493        33.3473 
 240   0.0000       1.235489        33.6194 
 241   0.0000       1.252246        34.0753 
 242   0.0000       1.256568        34.1929 
 243   0.0000       1.262485        34.3540 
 244   0.0000       1.274703        34.6864 
 245   0.0000       1.283152        34.9163 
 246   0.0000       1.300019        35.3753 
 247   0.0000       1.300871        35.3985 
 248   0.0000       1.320794        35.9406 
 249   0.0000       1.332136        36.2493 
 250   0.0000       1.360954        37.0335 
 251   0.0000       1.383387        37.6439 
 252   0.0000       1.389781        37.8179 
 253   0.0000       1.394453        37.9450 
 254   0.0000       1.414751        38.4973 
 255   0.0000       1.440827        39.2069 
 256   0.0000       1.461691        39.7746 
 257   0.0000       1.472750        40.0756 
 258   0.0000       1.481133        40.3037 
 259   0.0000       1.498547        40.7775 
 260   0.0000       1.540378        41.9158 
 261   0.0000       1.565992        42.6128 
 262   0.0000       1.575596        42.8742 
 263   0.0000       1.585263        43.1372 
 264   0.0000       1.612312        43.8733 
 265   0.0000       1.623847        44.1871 
 266   0.0000       1.632310        44.4174 
 267   0.0000       1.666235        45.3406 
 268   0.0000       1.698157        46.2092 
 269   0.0000       1.702674        46.3321 
 270   0.0000       1.718092        46.7517 
 271   0.0000       1.742785        47.4236 
 272   0.0000       1.766114        48.0584 
 273   0.0000       1.776158        48.3317 
 274   0.0000       1.783436        48.5298 
 275   0.0000       1.799253        48.9602 
 276   0.0000       1.809316        49.2340 
 277   0.0000       1.816614        49.4326 
 278   0.0000       1.834785        49.9270 
 279   0.0000       1.844511        50.1917 
 280   0.0000       1.853194        50.4280 
 281   0.0000       1.858481        50.5718 
 282   0.0000       1.869115        50.8612 
 283   0.0000       1.878353        51.1126 
 284   0.0000       1.895145        51.5695 
 285   0.0000       1.904653        51.8283 
 286   0.0000       1.906473        51.8778 
 287   0.0000       1.917474        52.1771 
 288   0.0000       1.926893        52.4334 
 289   0.0000       1.932439        52.5843 
 290   0.0000       1.944902        52.9235 
 291   0.0000       1.947969        53.0069 
 292   0.0000       1.953051        53.1452 
 293   0.0000       1.961513        53.3755 
 294   0.0000       1.971964        53.6599 
 295   0.0000       1.992083        54.2073 
 296   0.0000       2.008644        54.6580 
 297   0.0000       2.016753        54.8786 
 298   0.0000       2.029549        55.2268 
 299   0.0000       2.046089        55.6769 
 300   0.0000       2.050516        55.7974 
 301   0.0000       2.059814        56.0504 
 302   0.0000       2.061410        56.0938 
 303   0.0000       2.065225        56.1976 
 304   0.0000       2.075604        56.4800 
 305   0.0000       2.079394        56.5832 
 306   0.0000       2.083563        56.6966 
 307   0.0000       2.089248        56.8513 
 308   0.0000       2.093801        56.9752 
 309   0.0000       2.098772        57.1105 
 310   0.0000       2.111814        57.4654 
 311   0.0000       2.121085        57.7177 
 312   0.0000       2.129042        57.9342 
 313   0.0000       2.137433        58.1625 
 314   0.0000       2.143516        58.3280 
 315   0.0000       2.151195        58.5370 
 316   0.0000       2.158067        58.7240 
 317   0.0000       2.162582        58.8468 
 318   0.0000       2.173343        59.1397 
 319   0.0000       2.178289        59.2742 
 320   0.0000       2.185897        59.4813 
 321   0.0000       2.193428        59.6862 
 322   0.0000       2.224729        60.5380 
 323   0.0000       2.240512        60.9674 
 324   0.0000       2.253319        61.3159 
 325   0.0000       2.277130        61.9639 
 326   0.0000       2.285547        62.1929 
 327   0.0000       2.301125        62.6168 
 328   0.0000       2.307514        62.7906 
 329   0.0000       2.333306        63.4925 
 330   0.0000       2.341578        63.7176 
 331   0.0000       2.352743        64.0214 
 332   0.0000       2.367291        64.4173 
 333   0.0000       2.369508        64.4776 
 334   0.0000       2.385689        64.9179 
 335   0.0000       2.397707        65.2449 
 336   0.0000       2.417908        65.7946 
 337   0.0000       2.423968        65.9595 
 338   0.0000       2.442412        66.4614 
 339   0.0000       2.452033        66.7232 
 340   0.0000       2.458569        66.9011 
 341   0.0000       2.460471        66.9528 
 342   0.0000       2.466679        67.1217 
 343   0.0000       2.472022        67.2671 
 344   0.0000       2.475459        67.3607 
 345   0.0000       2.485321        67.6290 
 346   0.0000       2.489871        67.7528 
 347   0.0000       2.496760        67.9403 
 348   0.0000       2.516096        68.4665 
 349   0.0000       2.520849        68.5958 
 350   0.0000       2.522464        68.6397 
 351   0.0000       2.543081        69.2008 
 352   0.0000       2.576467        70.1092 
 353   0.0000       2.588931        70.4484 
 354   0.0000       2.595876        70.6374 
 355   0.0000       2.614134        71.1342 
 356   0.0000       2.623744        71.3957 
 357   0.0000       2.635773        71.7230 
 358   0.0000       2.639838        71.8336 
 359   0.0000       2.648044        72.0569 
 360   0.0000       2.683922        73.0332 
 361   0.0000       2.693139        73.2840 
 362   0.0000       2.724226        74.1299 
 363   0.0000       2.755079        74.9695 
 364   0.0000       2.774574        75.5000 
 365   0.0000       2.787051        75.8395 
 366   0.0000       2.823960        76.8439 
 367   0.0000       2.840987        77.3072 
 368   0.0000       2.853100        77.6368 
 369   0.0000       2.867183        78.0200 
 370   0.0000       2.879049        78.3429 
 371   0.0000       2.901302        78.9484 
 372   0.0000       2.907043        79.1047 
 373   0.0000       2.912538        79.2542 
 374   0.0000       2.925842        79.6162 
 375   0.0000       2.928149        79.6790 
 376   0.0000       2.935418        79.8768 
 377   0.0000       2.942184        80.0609 
 378   0.0000       2.956482        80.4500 
 379   0.0000       2.962284        80.6078 
 380   0.0000       2.973561        80.9147 
 381   0.0000       2.980754        81.1104 
 382   0.0000       2.993767        81.4646 
 383   0.0000       3.001569        81.6768 
 384   0.0000       3.011515        81.9475 
 385   0.0000       3.014065        82.0169 
 386   0.0000       3.017526        82.1111 
 387   0.0000       3.026018        82.3421 
 388   0.0000       3.044673        82.8498 
 389   0.0000       3.049553        82.9826 
 390   0.0000       3.053116        83.0795 
 391   0.0000       3.062302        83.3295 
 392   0.0000       3.073424        83.6321 
 393   0.0000       3.075655        83.6928 
 394   0.0000       3.088078        84.0309 
 395   0.0000       3.092139        84.1414 
 396   0.0000       3.102087        84.4121 
 397   0.0000       3.110780        84.6486 
 398   0.0000       3.123637        84.9985 
 399   0.0000       3.130049        85.1730 
 400   0.0000       3.130802        85.1934 
 401   0.0000       3.139356        85.4262 
 402   0.0000       3.143307        85.5337 
 403   0.0000       3.150815        85.7380 
 404   0.0000       3.155583        85.8678 
 405   0.0000       3.163048        86.0709 
 406   0.0000       3.169987        86.2597 
 407   0.0000       3.179481        86.5181 
 408   0.0000       3.187719        86.7422 
 409   0.0000       3.193753        86.9064 
 410   0.0000       3.206109        87.2427 
 411   0.0000       3.210739        87.3686 
 412   0.0000       3.215000        87.4846 
 413   0.0000       3.227191        87.8163 
 414   0.0000       3.236644        88.0736 
 415   0.0000       3.242759        88.2400 
 416   0.0000       3.245939        88.3265 
 417   0.0000       3.260897        88.7335 
 418   0.0000       3.270029        88.9820 
 419   0.0000       3.273431        89.0746 
 420   0.0000       3.276638        89.1619 
 421   0.0000       3.298902        89.7677 
 422   0.0000       3.301648        89.8424 
 423   0.0000       3.307140        89.9919 
 424   0.0000       3.309393        90.0532 
 425   0.0000       3.317918        90.2851 
 426   0.0000       3.347027        91.0772 
 427   0.0000       3.351134        91.1890 
 428   0.0000       3.356118        91.3246 
 429   0.0000       3.377334        91.9019 
 430   0.0000       3.391028        92.2746 
 431   0.0000       3.398377        92.4745 
 432   0.0000       3.415772        92.9479 
 433   0.0000       3.431179        93.3671 
 434   0.0000       3.449741        93.8722 
 435   0.0000       3.459222        94.1302 
 436   0.0000       3.481859        94.7462 
 437   0.0000       3.495629        95.1209 
 438   0.0000       3.509023        95.4854 
 439   0.0000       3.519951        95.7827 
 440   0.0000       3.538143        96.2778 
 441   0.0000       3.561877        96.9236 
 442   0.0000       3.564325        96.9902 
 443   0.0000       3.588987        97.6613 
 444   0.0000       3.609380        98.2162 
 445   0.0000       3.612666        98.3057 
 446   0.0000       3.625712        98.6606 
 447   0.0000       3.647000        99.2399 
 448   0.0000       3.656997        99.5120 
 449   0.0000       3.676148       100.0331 
 450   0.0000       3.704292       100.7989 
 451   0.0000       3.721922       101.2787 
 452   0.0000       3.735400       101.6454 
 453   0.0000       3.756101       102.2087 
 454   0.0000       3.757269       102.2405 
 455   0.0000       3.770078       102.5890 
 456   0.0000       3.785571       103.0106 
 457   0.0000       3.797853       103.3448 
 458   0.0000       3.807363       103.6036 
 459   0.0000       3.829682       104.2109 
 460   0.0000       3.836902       104.4074 
 461   0.0000       3.844675       104.6189 
 462   0.0000       3.852733       104.8382 
 463   0.0000       3.865628       105.1891 
 464   0.0000       3.869902       105.3054 
 465   0.0000       3.892122       105.9100 
 466   0.0000       3.900215       106.1302 
 467   0.0000       3.912973       106.4774 
 468   0.0000       3.921681       106.7144 
 469   0.0000       3.937604       107.1477 
 470   0.0000       3.948129       107.4340 
 471   0.0000       3.958155       107.7069 
 472   0.0000       3.962824       107.8339 
 473   0.0000       3.987594       108.5080 
 474   0.0000       3.992123       108.6312 
 475   0.0000       4.005165       108.9861 
 476   0.0000       4.018928       109.3606 
 477   0.0000       4.023567       109.4868 
 478   0.0000       4.034704       109.7899 
 479   0.0000       4.046285       110.1050 
 480   0.0000       4.054957       110.3410 
 481   0.0000       4.064753       110.6076 
 482   0.0000       4.087637       111.2302 
 483   0.0000       4.088988       111.2670 
 484   0.0000       4.096924       111.4830 
 485   0.0000       4.102764       111.6419 
 486   0.0000       4.111245       111.8727 
 487   0.0000       4.115997       112.0020 
 488   0.0000       4.121276       112.1456 
 489   0.0000       4.129519       112.3699 
 490   0.0000       4.136132       112.5499 
 491   0.0000       4.157264       113.1249 
 492   0.0000       4.160777       113.2205 
 493   0.0000       4.164106       113.3111 
 494   0.0000       4.188110       113.9643 
 495   0.0000       4.199524       114.2749 
 496   0.0000       4.214912       114.6936 
 497   0.0000       4.241209       115.4092 
 498   0.0000       4.253706       115.7492 
 499   0.0000       4.270712       116.2120 
 500   0.0000       4.290792       116.7584 
 501   0.0000       4.297440       116.9393 
 502   0.0000       4.316698       117.4633 
 503   0.0000       4.368311       118.8678 
 504   0.0000       4.401006       119.7575 
 505   0.0000       4.555521       123.9620 
 506   0.0000       4.601186       125.2046 
 507   0.0000       4.623823       125.8206 
 508   0.0000       4.663315       126.8952 
 509   0.0000       4.735544       128.8607 
 510   0.0000       4.761387       129.5639 
 511   0.0000       4.806143       130.7818 
 512   0.0000       4.932816       134.2288 
 513   0.0000       4.949611       134.6858 
 514   0.0000       5.043218       137.2330 
 515   0.0000       5.125516       139.4724 
 516   0.0000       5.135498       139.7440 
 517   0.0000       5.183591       141.0527 
 518   0.0000       5.198345       141.4542 
 519   0.0000       5.206451       141.6747 
 520   0.0000       5.207700       141.7087 
 521   0.0000       5.210842       141.7942 
 522   0.0000       5.226412       142.2179 
 523   0.0000       5.256716       143.0425 
 524   0.0000       5.292485       144.0158 
 525   0.0000       5.293269       144.0372 
 526   0.0000       5.321011       144.7921 
 527   0.0000       5.334946       145.1713 
 528   0.0000       5.345959       145.4709 
 529   0.0000       5.414377       147.3327 
 530   0.0000       5.435463       147.9065 
 531   0.0000       5.468884       148.8159 
 532   0.0000       5.477969       149.0631 
 533   0.0000       5.528839       150.4474 
 534   0.0000       5.593198       152.1986 
 535   0.0000       5.658350       153.9715 
 536   0.0000       5.710904       155.4016 
 537   0.0000       5.743975       156.3015 
 538   0.0000       5.850852       159.2098 
 539   0.0000       5.917102       161.0125 
 540   0.0000       6.164543       167.7457 
 541   0.0000       6.228550       169.4875 
 542   0.0000       6.339797       172.5147 
 543   0.0000       6.381211       173.6416 
 544   0.0000       6.414787       174.5552 
 545   0.0000       6.445336       175.3865 
 546   0.0000       6.728099       183.0809 
 547   0.0000       6.780647       184.5108 
 548   0.0000       6.804127       185.1497 
 549   0.0000       6.804570       185.1618 
 550   0.0000       6.808158       185.2594 
 551   0.0000       6.808370       185.2652 
 552   0.0000       6.809695       185.3012 
 553   0.0000       6.811747       185.3571 
 554   0.0000       6.812260       185.3710 
 555   0.0000       6.812722       185.3836 
 556   0.0000       6.814314       185.4269 
 557   0.0000       6.815305       185.4539 
 558   0.0000       6.816992       185.4998 
 559   0.0000       6.817350       185.5095 
 560   0.0000       6.818250       185.5340 
 561   0.0000       6.822385       185.6465 
 562   0.0000       6.823643       185.6808 
 563   0.0000       6.824073       185.6925 
 564   0.0000       6.826302       185.7531 
 565   0.0000       6.828343       185.8087 
 566   0.0000       6.829652       185.8443 
 567   0.0000       6.831121       185.8843 
 568   0.0000       6.831370       185.8910 
 569   0.0000       6.832692       185.9270 
 570   0.0000       6.833365       185.9453 
 571   0.0000       6.835360       185.9996 
 572   0.0000       6.836359       186.0268 
 573   0.0000       6.838361       186.0813 
 574   0.0000       6.840248       186.1326 
 575   0.0000       6.841944       186.1788 
 576   0.0000       6.844215       186.2405 
 577   0.0000       6.847150       186.3204 
 578   0.0000       6.848016       186.3440 
 579   0.0000       6.850686       186.4166 
 580   0.0000       6.851564       186.4405 
 581   0.0000       6.854438       186.5187 
 582   0.0000       6.856388       186.5718 
 583   0.0000       6.860049       186.6714 
 584   0.0000       6.860504       186.6838 
 585   0.0000       6.863931       186.7771 
 586   0.0000       6.865176       186.8109 
 587   0.0000       6.868524       186.9020 
 588   0.0000       6.880619       187.2312 
 589   0.0000       6.882256       187.2757 
 590   0.0000       6.892703       187.5600 
 591   0.0000       6.904329       187.8763 
 592   0.0000       6.909119       188.0067 
 593   0.0000       6.948177       189.0695 
 594   0.0000       6.949898       189.1163 
 595   0.0000       6.953740       189.2209 
 596   0.0000       6.957493       189.3230 
 597   0.0000       6.957994       189.3366 
 598   0.0000       6.962665       189.4637 
 599   0.0000       6.973311       189.7534 
 600   0.0000       6.988546       190.1680 
 601   0.0000       6.995296       190.3517 
 602   0.0000       7.003189       190.5665 
[...]
      dxy     :     0.000000
      f0      :    -0.000000  f :     0.000000
      f+1     :     0.000000
      f-1     :    -0.000000
      f+2     :     0.000000
      f-2     :    -0.000000
      f+3     :    -0.000000
      f-3     :     0.000000
  2 O s       :     0.000000  s :     0.000000
      pz      :     0.000001  p :     0.000002
      px      :    -0.000000
      py      :     0.000001
      dz2     :     0.000000  d :    -0.000000
      dxz     :     0.000000
      dyz     :    -0.000000
      dx2y2   :    -0.000000
      dxy     :    -0.000000
      f0      :     0.000000  f :     0.000000
      f+1     :     0.000000
      f-1     :    -0.000000
      f+2     :     0.000000
      f-2     :    -0.000000
      f+3     :     0.000000
      f-3     :     0.000000
  3 C s       :    -0.000000  s :    -0.000000
      pz      :    -0.000001  p :     0.000005
      px      :     0.000007
      py      :    -0.000001
      dz2     :    -0.000000  d :    -0.000001
      dxz     :     0.000000
      dyz     :    -0.000000
      dx2y2   :    -0.000001
      dxy     :     0.000000
      f0      :     0.000000  f :    -0.000000
      f+1     :    -0.000000
      f-1     :     0.000000
      f+2     :    -0.000000
      f-2     :     0.000000
      f+3     :    -0.000000
      f-3     :    -0.000000
  4 C s       :    -0.000000  s :    -0.000000
      pz      :    -0.000001  p :    -0.000006
      px      :    -0.000001
      py      :    -0.000004
      dz2     :    -0.000000  d :    -0.000005
      dxz     :     0.000000
      dyz     :    -0.000000
      dx2y2   :    -0.000005
      dxy     :     0.000000
      f0      :    -0.000000  f :    -0.000000
      f+1     :    -0.000000
      f-1     :     0.000000
      f+2     :    -0.000000
      f-2     :     0.000000
      f+3     :    -0.000000
      f-3     :     0.000000
  5 C s       :     0.000005  s :     0.000005
      pz      :     0.000003  p :     0.000008
      px      :     0.000027
      py      :    -0.000022
      dz2     :     0.000002  d :     0.000008
      dxz     :     0.000000
      dyz     :     0.000000
      dx2y2   :    -0.000004
      dxy     :     0.000009
      f0      :    -0.000000  f :    -0.000003
      f+1     :    -0.000000
      f-1     :     0.000000
      f+2     :    -0.000000
      f-2     :     0.000000
      f+3     :    -0.000001
      f-3     :    -0.000001
  6 C s       :    -0.000042  s :    -0.000042
      pz      :    -0.000022  p :    -0.000226
      px      :    -0.000158
      py      :    -0.000046
      dz2     :    -0.000002  d :    -0.000026
      dxz     :    -0.000002
      dyz     :    -0.000005
      dx2y2   :    -0.000016
      dxy     :    -0.000001
      f0      :    -0.000002  f :    -0.000004
      f+1     :     0.000001
      f-1     :     0.000001
      f+2     :    -0.000000
      f-2     :    -0.000001
      f+3     :    -0.000003
      f-3     :    -0.000000
  7 C s       :     0.000564  s :     0.000564
      pz      :    -0.000051  p :     0.004554
      px      :     0.003391
      py      :     0.001214
      dz2     :    -0.000147  d :    -0.000662
      dxz     :    -0.000030
      dyz     :    -0.000006
      dx2y2   :    -0.000795
      dxy     :     0.000317
      f0      :     0.000017  f :     0.000063
      f+1     :    -0.000003
      f-1     :     0.000005
      f+2     :    -0.000000
      f-2     :     0.000026
      f+3     :    -0.000087
      f-3     :     0.000105
  8 C s       :     0.006443  s :     0.006443
      pz      :     0.005132  p :     0.023126
      px      :     0.012266
      py      :     0.005728
      dz2     :     0.001102  d :     0.036851
      dxz     :     0.002507
      dyz     :     0.001121
      dx2y2   :     0.020638
      dxy     :     0.011484
      f0      :     0.000009  f :     0.006879
      f+1     :     0.000082
      f-1     :     0.001018
      f+2     :     0.001900
      f-2     :     0.000049
      f+3     :     0.003693
      f-3     :     0.000127
  9 C s       :     0.088410  s :     0.088410
      pz      :     0.041039  p :     0.583039
      px      :     0.011007
      py      :     0.530993
      dz2     :     0.001119  d :     0.028437
      dxz     :     0.000631
      dyz     :     0.006119
      dx2y2   :     0.008326
      dxy     :     0.012242
      f0      :     0.000177  f :     0.004714
      f+1     :     0.001274
      f-1     :     0.002140
      f+2     :     0.001457
      f-2     :    -0.000198
      f+3     :     0.000284
      f-3     :    -0.000420
 10 F s       :     0.000000  s :     0.000000
      pz      :    -0.000000  p :     0.000000
      px      :     0.000000
      py      :     0.000000
      dz2     :    -0.000000  d :     0.000000
      dxz     :     0.000000
      dyz     :    -0.000000
      dx2y2   :    -0.000000
      dxy     :     0.000000
      f0      :     0.000000  f :     0.000000
      f+1     :     0.000000
      f-1     :     0.000000
      f+2     :    -0.000000
      f-2     :     0.000000
      f+3     :     0.000000
      f-3     :     0.000000
 11 F s       :     0.000000  s :     0.000000
      pz      :    -0.000000  p :     0.000001
      px      :     0.000001
      py      :     0.000000
      dz2     :    -0.000000  d :     0.000000
      dxz     :     0.000000
      dyz     :    -0.000000
      dx2y2   :     0.000000
      dxy     :     0.000000
      f0      :    -0.000000  f :     0.000000
      f+1     :     0.000000
      f-1     :    -0.000000
      f+2     :     0.000000
      f-2     :     0.000000
      f+3     :     0.000000
      f-3     :    -0.000000
 12 F s       :     0.000000  s :     0.000000
      pz      :     0.000000  p :     0.000001
      px      :     0.000001
      py      :     0.000000
      dz2     :     0.000000  d :    -0.000000
      dxz     :     0.000000
      dyz     :    -0.000000
      dx2y2   :    -0.000000
      dxy     :     0.000000
      f0      :    -0.000000  f :     0.000000
      f+1     :     0.000000
      f-1     :    -0.000000
      f+2     :    -0.000000
      f-2     :     0.000000
      f+3     :     0.000000
      f-3     :    -0.000000
 13 F s       :    -0.000000  s :    -0.000000
      pz      :     0.000000  p :     0.000000
      px      :    -0.000000
      py      :     0.000000
      dz2     :    -0.000000  d :    -0.000000
      dxz     :    -0.000000
      dyz     :    -0.000000
      dx2y2   :     0.000000
      dxy     :    -0.000000
      f0      :     0.000000  f :    -0.000000
      f+1     :     0.000000
      f-1     :    -0.000000
      f+2     :     0.000000
      f-2     :    -0.000000
      f+3     :    -0.000000
      f-3     :     0.000000
 14 F s       :     0.000003  s :     0.000003
      pz      :     0.000005  p :     0.000012
      px      :     0.000003
      py      :     0.000004
      dz2     :     0.000000  d :    -0.000000
      dxz     :    -0.000000
      dyz     :     0.000000
      dx2y2   :    -0.000000
      dxy     :     0.000000
      f0      :     0.000000  f :     0.000000
      f+1     :    -0.000000
      f-1     :    -0.000000
      f+2     :     0.000000
      f-2     :     0.000000
      f+3     :     0.000000
      f-3     :     0.000000
 15 F s       :     0.000002  s :     0.000002
      pz      :     0.000002  p :     0.000014
      px      :     0.000006
      py      :     0.000006
      dz2     :    -0.000000  d :     0.000000
      dxz     :    -0.000001
      dyz     :    -0.000000
      dx2y2   :     0.000000
      dxy     :     0.000000
      f0      :    -0.000000  f :    -0.000000
      f+1     :     0.000000
      f-1     :    -0.000000
      f+2     :    -0.000000
      f-2     :    -0.000000
      f+3     :     0.000000
      f-3     :    -0.000000
 16 F s       :     0.000026  s :     0.000026
      pz      :     0.000015  p :     0.000031
      px      :     0.000011
      py      :     0.000006
      dz2     :     0.000000  d :    -0.000001
      dxz     :    -0.000000
      dyz     :    -0.000000
      dx2y2   :    -0.000001
      dxy     :     0.000000
      f0      :    -0.000000  f :    -0.000000
      f+1     :    -0.000000
      f-1     :    -0.000000
      f+2     :    -0.000000
      f-2     :    -0.000000
      f+3     :    -0.000000
      f-3     :    -0.000000
 17 F s       :     0.000018  s :     0.000018
      pz      :     0.000039  p :     0.000054
      px      :    -0.000013
      py      :     0.000028
      dz2     :    -0.000001  d :    -0.000003
      dxz     :    -0.000003
      dyz     :    -0.000001
      dx2y2   :    -0.000000
      dxy     :     0.000001
      f0      :    -0.000000  f :    -0.000000
      f+1     :    -0.000000
      f-1     :     0.000000
      f+2     :    -0.000000
      f-2     :    -0.000000
      f+3     :    -0.000000
      f-3     :    -0.000000
 18 F s       :     0.000370  s :     0.000370
      pz      :     0.000191  p :     0.002122
      px      :     0.001982
      py      :    -0.000051
      dz2     :     0.000001  d :     0.000042
      dxz     :    -0.000005
      dyz     :     0.000000
      dx2y2   :     0.000038
      dxy     :     0.000008
      f0      :    -0.000000  f :     0.000001
      f+1     :     0.000000
      f-1     :    -0.000000
      f+2     :    -0.000000
      f-2     :     0.000000
      f+3     :     0.000001
      f-3     :    -0.000000
 19 F s       :     0.000095  s :     0.000095
      pz      :     0.000012  p :     0.001137
      px      :     0.000103
      py      :     0.001022
      dz2     :     0.000001  d :     0.000047
      dxz     :    -0.000002
      dyz     :     0.000015
      dx2y2   :     0.000013
      dxy     :     0.000020
      f0      :    -0.000000  f :     0.000002
      f+1     :     0.000001
      f-1     :     0.000000
      f+2     :     0.000001
      f-2     :     0.000001
      f+3     :     0.000000
      f-3     :    -0.000000
 20 F s       :     0.001698  s :     0.001698
      pz      :     0.000578  p :     0.027665
      px      :     0.007928
      py      :     0.019158
      dz2     :     0.000207  d :     0.000839
      dxz     :     0.000091
      dyz     :     0.000028
      dx2y2   :     0.000156
      dxy     :     0.000357
      f0      :     0.000005  f :     0.000043
      f+1     :     0.000000
      f-1     :     0.000007
      f+2     :    -0.000000
      f-2     :     0.000014
      f+3     :     0.000015
      f-3     :     0.000002
 21 F s       :    -0.000075  s :    -0.000075
      pz      :     0.000176  p :     0.000340
      px      :    -0.000113
      py      :     0.000277
      dz2     :     0.000076  d :     0.000047
      dxz     :     0.000072
      dyz     :    -0.000077
      dx2y2   :    -0.000007
      dxy     :    -0.000018
      f0      :     0.000002  f :     0.000004
      f+1     :     0.000007
      f-1     :    -0.000003
      f+2     :     0.000000
      f-2     :    -0.000001
      f+3     :    -0.000000
      f-3     :     0.000000
 22 F s       :     0.003357  s :     0.003357
      pz      :     0.001122  p :     0.080567
      px      :    -0.002368
      py      :     0.081813
      dz2     :     0.000873  d :     0.009062
      dxz     :     0.000581
      dyz     :     0.001400
      dx2y2   :     0.000599
      dxy     :     0.005608
      f0      :     0.000015  f :     0.000472
      f+1     :     0.000057
      f-1     :     0.000002
      f+2     :     0.000058
      f-2     :     0.000123
      f+3     :     0.000078
      f-3     :     0.000140
 23 F s       :     0.003208  s :     0.003208
      pz      :     0.002157  p :     0.077187
      px      :     0.000148
      py      :     0.074882
      dz2     :     0.000943  d :     0.008992
      dxz     :     0.000193
      dyz     :     0.007398
      dx2y2   :     0.000009
      dxy     :     0.000449
      f0      :     0.000028  f :     0.000476
      f+1     :     0.000017
      f-1     :     0.000375
      f+2     :     0.000001
      f-2     :     0.000054
      f+3     :    -0.000000
      f-3     :     0.000001


                      *****************************
                      * MAYER POPULATION ANALYSIS *
                      *****************************

  NA   - Mulliken gross atomic population
  ZA   - Total nuclear charge
  QA   - Mulliken gross atomic charge
  VA   - Mayer's total valence
  BVA  - Mayer's bonded valence
  FA   - Mayer's free valence

  ATOM       NA         ZA         QA         VA         BVA        FA
  0 C      5.8555     6.0000     0.1445     4.6748     4.6748     0.0000
  1 O      8.4729     8.0000    -0.4729     1.9785     1.9785     0.0000
  2 O      8.4866     8.0000    -0.4866     1.9606     1.9606     0.0000
  3 C      5.6558     6.0000     0.3442     3.8787     3.8787    -0.0000
  4 C      5.6865     6.0000     0.3135     4.0667     4.0667     0.0000
  5 C      5.6639     6.0000     0.3361     4.1510     4.1510     0.0000
  6 C      5.6742     6.0000     0.3258     4.1677     4.1676     0.0000
  7 C      5.6900     6.0000     0.3100     4.1421     4.1420     0.0001
  8 C      5.5974     6.0000     0.4026     4.0645     4.0631     0.0014
  9 C      5.7348     6.0000     0.2652     4.0164     3.3219     0.6944
 10 F      9.2119     9.0000    -0.2119     1.0765     1.0765     0.0000
 11 F      9.2178     9.0000    -0.2178     1.0627     1.0627    -0.0000
 12 F      9.1839     9.0000    -0.1839     1.1256     1.1256     0.0000
 13 F      9.1913     9.0000    -0.1913     1.1174     1.1174    -0.0000
 14 F      9.1767     9.0000    -0.1767     1.1365     1.1365     0.0000
 15 F      9.1752     9.0000    -0.1752     1.1396     1.1396     0.0000
 16 F      9.1712     9.0000    -0.1712     1.1446     1.1446     0.0000
 17 F      9.1718     9.0000    -0.1718     1.1461     1.1461     0.0000
 18 F      9.1734     9.0000    -0.1734     1.1462     1.1462     0.0000
 19 F      9.1714     9.0000    -0.1714     1.1438     1.1438     0.0000
 20 F      9.1804     9.0000    -0.1804     1.1308     1.1299     0.0009
 21 F      9.1691     9.0000    -0.1691     1.1453     1.1452     0.0000
 22 F      9.1437     9.0000    -0.1437     1.1719     1.1648     0.0071
 23 F      9.1445     9.0000    -0.1445     1.1687     1.1620     0.0066

  Mayer bond orders larger than 0.100000
B(  0-C ,  1-O ) :   1.8972 B(  0-C ,  2-O ) :   1.8731 B(  0-C ,  3-C ) :   0.8452 
B(  3-C ,  4-C ) :   0.9237 B(  3-C , 10-F ) :   1.0435 B(  3-C , 11-F ) :   1.0310 
B(  4-C ,  5-C ) :   0.9263 B(  4-C , 12-F ) :   1.0670 B(  4-C , 13-F ) :   1.0574 
B(  5-C ,  6-C ) :   0.9368 B(  5-C , 14-F ) :   1.0698 B(  5-C , 15-F ) :   1.0776 
B(  6-C ,  7-C ) :   0.9341 B(  6-C , 16-F ) :   1.0797 B(  6-C , 17-F ) :   1.0796 
B(  7-C ,  8-C ) :   0.9338 B(  7-C , 18-F ) :   1.0727 B(  7-C , 19-F ) :   1.0785 
B(  8-C ,  9-C ) :   0.8992 B(  8-C , 20-F ) :   1.0590 B(  8-C , 21-F ) :   1.0971 
B(  9-C , 22-F ) :   1.1375 B(  9-C , 23-F ) :   1.1427 

-------
TIMINGS
-------

Total SCF time: 0 days 0 hours 1 min 10 sec 

Total time                  ....      70.853 sec
Sum of individual times     ....      68.306 sec  ( 96.4%)

Fock matrix formation       ....      59.577 sec  ( 84.1%)
  Split-RI-J                ....       4.076 sec  (  6.8% of F)
  Chain of spheres X        ....      41.753 sec  ( 70.1% of F)
  XC integration            ....       8.215 sec  ( 13.8% of F)
    Basis function eval.    ....       0.681 sec  (  8.3% of XC)
    Density eval.           ....       2.283 sec  ( 27.8% of XC)
    XC-Functional eval.     ....       0.282 sec  (  3.4% of XC)
    XC-Potential eval.      ....       1.540 sec  ( 18.7% of XC)
Diagonalization             ....       3.624 sec  (  5.1%)
Density matrix formation    ....       0.212 sec  (  0.3%)
Population analysis         ....       0.341 sec  (  0.5%)
Initial guess               ....       0.536 sec  (  0.8%)
Orbital Transformation      ....       0.000 sec  (  0.0%)
Orbital Orthonormalization  ....       0.461 sec  (  0.7%)
DIIS solution               ....       1.449 sec  (  2.0%)
Grid generation             ....       2.567 sec  (  3.6%)

Maximum memory used throughout the entire SCF-calculation: 160.9 MB


-------------------------------------------------------------------------------
                          DFT DISPERSION CORRECTION                            
                                                                               
                              DFTD3 V3.1  Rev 1                                
                          USING Becke-Johnson damping                          
-------------------------------------------------------------------------------
The B3LYP functional is recognized
Active option DFTDOPT                   ...         4   

molecular C6(AA) [au] = 6305.419326 


            DFT-D V3
 parameters
 s6 scaling factor         :     1.0000 
 a1 scaling factor         :     0.3981 
 s8 scaling factor         :     1.9889 
 a2 scaling factor         :     4.4211 
 ad hoc parameters k1-k3   :    16.0000     1.3333    -4.0000 

 Edisp/kcal,au: -26.647954217023  -0.042466213621 
 E6   /kcal   : -12.637915471 
 E8   /kcal   : -14.010038746 
 % E8         :  52.574537739 

-------------------------   ----------------
Dispersion correction           -0.042466214
-------------------------   ----------------


-------------------------   --------------------
FINAL SINGLE POINT ENERGY     -1853.265936270740
-------------------------   --------------------

                                *** OPTIMIZATION RUN DONE ***

                            ***************************************
                            *     ORCA property calculations      *
                            ***************************************

                                    ---------------------
                                    Active property flags
                                    ---------------------
   (+) Dipole Moment


------------------------------------------------------------------------------
                       ORCA ELECTRIC PROPERTIES CALCULATION
------------------------------------------------------------------------------

Dipole Moment Calculation                       ... on
Quadrupole Moment Calculation                   ... off
Polarizability Calculation                      ... off
GBWName                                         ... rf_mecn_opt_B3L_C8_D_B.gbw
Electron density                                ... rf_mecn_opt_B3L_C8_D_B.scfp
The origin for moment calculation is the CENTER OF MASS  = ( 0.283899,  0.100911 -0.009131)

-------------
DIPOLE MOMENT
-------------
                                X             Y             Z
Electronic contribution:    -17.39654      -0.47515       1.66484
Nuclear contribution   :      8.61940       0.14615      -0.93854
                        -----------------------------------------
Total Dipole Moment    :     -8.77714      -0.32900       0.72631
                        -----------------------------------------
Magnitude (a.u.)       :      8.81328
Magnitude (Debye)      :     22.40159



--------------------
Rotational spectrum 
--------------------
 
Rotational constants in cm-1:     0.022688     0.004048     0.004015 
Rotational constants in MHz :   680.176861   121.363936   120.372596 

 Dipole components along the rotational axes: 
x,y,z [a.u.] :     8.753304    -0.443214     0.925850 
x,y,z [Debye]:    22.249131    -1.126561     2.353323 

 

Timings for individual modules:

Sum of individual times         ...     1583.753 sec (=  26.396 min)
GTO integral calculation        ...       16.952 sec (=   0.283 min)   1.1 %
SCF iterations                  ...     1275.404 sec (=  21.257 min)  80.5 %
SCF Gradient evaluation         ...      290.631 sec (=   4.844 min)  18.4 %
Geometry relaxation             ...        0.766 sec (=   0.013 min)   0.0 %
                             ****ORCA TERMINATED NORMALLY****
TOTAL RUN TIME: 0 days 0 hours 26 minutes 30 seconds 458 msec
